/*--------------------------------*- C++ -*----------------------------------*\
| =========                 |                                                 |
| \\      /  F ield         | OpenFOAM: The Open Source CFD Toolbox           |
|  \\    /   O peration     | Version:  2.4.0                                 |
|   \\  /    A nd           | Web:      www.OpenFOAM.org                      |
|    \\/     M anipulation  |                                                 |
\*---------------------------------------------------------------------------*/
FoamFile
{
    version     2.0;
    format      ascii;
    class       volScalarField;
    location    "350";
    object      p;
}
// * * * * * * * * * * * * * * * * * * * * * * * * * * * * * * * * * * * * * //

dimensions      [0 2 -2 0 0 0 0];

internalField   nonuniform List<scalar> 
283312
(
-0.00625879
-0.00631757
-0.00655721
-0.00689762
-0.00725074
-0.00754731
-0.0077793
-0.00794166
-0.00806683
-0.00817839
-0.0082966
-0.00840813
-0.00848089
-0.0084592
-0.00830928
-0.00803813
-0.00765701
-0.00720249
-0.00675566
-0.00641465
0.00214974
0.00164713
0.00122013
0.000949895
0.000849475
0.000913846
0.00105584
0.00119596
0.00130604
0.00139366
0.00146118
0.00154026
0.00166869
0.00186912
0.0021543
0.00252338
0.00283929
0.00299156
0.00291656
0.0026128
-0.00230243
-0.00215118
-0.00192772
-0.00168757
-0.00149551
-0.00139896
-0.00138144
-0.00138877
-0.001439
-0.00148194
-0.00151347
-0.0014931
-0.00142213
-0.0013226
-0.00127588
-0.00138101
-0.0016195
-0.00191134
-0.0021715
-0.00231356
0.00148052
0.00165269
0.00179599
0.00191045
0.00199317
0.00206157
0.00206803
0.00207394
0.00204012
0.00205021
0.00206692
0.00211412
0.0021432
0.00210231
0.00197692
0.00173865
0.00149152
0.00131043
0.0012573
0.00133179
-0.000743333
-0.000545631
-0.000429411
-0.000351581
-0.000348684
-0.000336432
-0.000348469
-0.000335351
-0.000365865
-0.00034356
-0.000353318
-0.000409522
-0.000585881
-0.000900074
-0.00132091
-0.00165715
-0.00174697
-0.00160663
-0.00132318
-0.00100854
0.00120233
0.00131141
0.00136897
0.00141438
0.00142801
0.00143522
0.00140059
0.00138724
0.00132254
0.00133165
0.00127517
0.00115066
0.000875843
0.000519506
0.000256923
0.000187746
0.000316537
0.000558894
0.000823335
0.00104611
-0.000150323
-0.000110949
-0.00010411
-9.83569e-05
-0.000109698
-8.47206e-05
-8.52648e-05
-5.68829e-05
-8.8605e-05
-6.4507e-05
-0.00018048
-0.00045176
-0.000863421
-0.00126819
-0.00140003
-0.00124817
-0.000936277
-0.0006242
-0.000382337
-0.000229582
0.000762109
0.000810984
0.000834374
0.000859185
0.000847452
0.000843788
0.000806189
0.000785684
0.000716764
0.000706159
0.000547258
0.000233868
-0.00016965
-0.000359714
-0.000308089
-7.77165e-05
0.000205877
0.000432028
0.00059386
0.000697183
-3.97863e-07
1.34877e-06
-9.5222e-06
-1.11149e-05
-1.25383e-05
9.34823e-06
1.11399e-05
3.09413e-05
3.11636e-06
6.37341e-06
-0.00018797
-0.000594502
-0.000998253
-0.00108161
-0.0008682
-0.000578506
-0.000314686
-0.000150775
-5.48247e-05
-1.26697e-05
0.000440782
0.000465273
0.000475994
0.000486442
0.000473612
0.000465206
0.000434796
0.00041243
0.000359158
0.000341928
0.000161645
-0.00020879
-0.000460306
-0.000446352
-0.000214732
9.83871e-06
0.000194022
0.000299141
0.000369822
0.000411414
4.38398e-05
4.18438e-05
3.29933e-05
3.48723e-05
3.41227e-05
4.91458e-05
4.94654e-05
6.56813e-05
4.85113e-05
7.31375e-05
-0.000103827
-0.000533582
-0.000714984
-0.000632779
-0.000389882
-0.000205233
-6.75091e-05
-4.61684e-06
3.2289e-05
4.29775e-05
0.000250577
0.00026229
0.000266063
0.000269193
0.000258029
0.00024926
0.00022569
0.000208057
0.000172734
0.00019168
5.50593e-05
-0.000227054
-0.000331504
-0.000225526
-4.52499e-05
6.88069e-05
0.000154331
0.000190708
0.00022084
0.00023675
5.49527e-05
5.49357e-05
5.04604e-05
5.392e-05
5.27269e-05
6.39768e-05
6.3595e-05
8.71006e-05
8.37054e-05
0.000189996
7.55968e-05
-0.000271768
-0.000355737
-0.000290228
-0.000144944
-6.33793e-05
4.49149e-06
2.85132e-05
4.84977e-05
5.31083e-05
0.000145335
0.00015049
0.000150671
0.00015096
0.000141185
0.000133393
0.000114263
0.00010207
8.14744e-05
0.000138747
9.79861e-05
-5.13989e-05
-0.000108512
-5.33408e-05
3.36339e-05
7.051e-05
0.000108064
0.000117838
0.000132764
0.000138543
5.27997e-05
5.45264e-05
5.30533e-05
5.66155e-05
5.54091e-05
6.4389e-05
6.46726e-05
9.31862e-05
0.00010514
0.000279988
0.000266948
-5.0742e-05
-0.000137076
-0.000139625
-7.51673e-05
-3.48637e-05
1.10456e-05
2.67941e-05
4.39498e-05
4.88505e-05
8.89486e-05
9.11419e-05
8.99202e-05
8.91331e-05
8.07921e-05
7.39144e-05
5.75636e-05
4.69329e-05
2.89269e-05
8.59795e-05
0.000195878
3.70349e-05
-1.94847e-05
-1.95001e-05
2.14431e-05
3.4829e-05
6.3329e-05
7.0116e-05
8.18285e-05
8.48832e-05
4.62858e-05
4.84905e-05
4.8396e-05
5.12385e-05
5.0136e-05
5.61311e-05
5.59301e-05
7.23052e-05
6.84498e-05
0.000106975
6.64923e-05
-3.07913e-05
-4.0141e-05
-5.48927e-05
-2.09673e-05
-1.1992e-05
1.46718e-05
2.34064e-05
3.71652e-05
4.17306e-05
5.94545e-05
6.01994e-05
5.86922e-05
5.76009e-05
5.08786e-05
4.50089e-05
3.22253e-05
2.18112e-05
9.75461e-06
9.07646e-06
4.07919e-05
9.8561e-06
1.88975e-05
1.65355e-05
3.63393e-05
3.51221e-05
4.90545e-05
4.91608e-05
5.61583e-05
5.70636e-05
3.95269e-05
4.13567e-05
4.16444e-05
4.35022e-05
4.24018e-05
4.58418e-05
4.5792e-05
5.38564e-05
5.1453e-05
5.8152e-05
3.35934e-05
-1.54586e-05
-1.68136e-05
-3.05268e-05
-8.39245e-06
-4.59715e-06
1.45326e-05
2.05963e-05
3.15565e-05
3.53145e-05
4.37503e-05
4.38502e-05
4.25563e-05
4.14669e-05
3.63241e-05
3.16031e-05
2.212e-05
1.32135e-05
4.42761e-06
-2.42197e-06
1.15784e-05
6.44718e-06
2.27642e-05
2.0545e-05
3.41655e-05
3.02695e-05
3.88774e-05
3.7399e-05
4.20638e-05
4.21556e-05
3.40867e-05
3.5193e-05
3.54481e-05
3.64063e-05
3.50988e-05
3.67107e-05
3.64894e-05
3.97677e-05
3.90766e-05
3.7853e-05
2.54129e-05
-5.20864e-06
-6.18965e-06
-1.71368e-05
-1.95315e-06
4.19443e-07
1.4687e-05
1.92501e-05
2.77829e-05
3.05036e-05
3.50391e-05
3.48175e-05
3.39239e-05
3.29504e-05
2.91404e-05
2.5592e-05
1.88283e-05
1.17297e-05
5.85824e-06
-8.89228e-07
6.83349e-06
7.00633e-06
2.18417e-05
1.97722e-05
2.98231e-05
2.60945e-05
3.2017e-05
3.0566e-05
3.39685e-05
3.38236e-05
3.02367e-05
3.05323e-05
3.0735e-05
3.0955e-05
2.94847e-05
2.98357e-05
2.92042e-05
2.96764e-05
3.00711e-05
2.61946e-05
2.10865e-05
8.13016e-07
1.08953e-06
-6.92828e-06
3.90439e-06
5.44672e-06
1.58344e-05
1.92221e-05
2.55845e-05
2.73268e-05
3.0137e-05
2.95113e-05
2.90706e-05
2.8152e-05
2.52078e-05
2.26184e-05
1.8414e-05
1.25153e-05
9.32919e-06
3.264e-06
8.52771e-06
8.26209e-06
2.00286e-05
1.76307e-05
2.55722e-05
2.2903e-05
2.72441e-05
2.6441e-05
2.91135e-05
2.88018e-05
2.77266e-05
2.72022e-05
2.75169e-05
2.72599e-05
2.55593e-05
2.52215e-05
2.42577e-05
2.28969e-05
2.39546e-05
1.92831e-05
1.82446e-05
4.7521e-06
6.77321e-06
1.00917e-06
9.02331e-06
1.00814e-05
1.7267e-05
1.9839e-05
2.44511e-05
2.52651e-05
2.7288e-05
2.617e-05
2.61934e-05
2.51894e-05
2.28107e-05
2.12174e-05
1.83708e-05
1.35408e-05
1.28717e-05
6.65554e-06
1.1605e-05
9.0468e-06
1.84261e-05
1.59014e-05
2.20849e-05
2.0691e-05
2.39797e-05
2.39826e-05
2.60734e-05
2.56179e-05
2.59856e-05
2.49995e-05
2.5585e-05
2.47194e-05
2.31327e-05
2.24216e-05
2.15466e-05
1.87045e-05
2.03191e-05
1.52584e-05
1.69847e-05
7.60454e-06
1.11567e-05
6.43006e-06
1.29437e-05
1.3663e-05
1.85896e-05
2.06972e-05
2.37115e-05
2.40454e-05
2.56868e-05
2.36365e-05
2.44667e-05
2.3376e-05
2.11007e-05
2.01518e-05
1.83399e-05
1.39758e-05
1.52166e-05
8.89404e-06
1.4002e-05
9.69546e-06
1.75846e-05
1.4662e-05
1.9919e-05
1.95136e-05
2.16016e-05
2.26123e-05
2.4279e-05
2.3475e-05
2.53599e-05
2.33784e-05
2.45254e-05
2.30714e-05
2.12545e-05
2.12763e-05
1.98851e-05
1.62578e-05
1.9269e-05
1.27544e-05
1.72226e-05
8.95665e-06
1.43126e-05
1.02095e-05
1.53588e-05
1.64933e-05
1.93874e-05
2.15468e-05
2.32089e-05
2.28812e-05
2.43578e-05
2.18446e-05
2.3534e-05
2.18219e-05
1.99252e-05
1.95312e-05
1.84173e-05
1.34084e-05
1.67413e-05
9.67537e-06
1.58158e-05
9.87118e-06
1.76007e-05
1.35403e-05
1.8531e-05
1.87965e-05
2.01298e-05
2.20089e-05
2.27546e-05
2.20983e-05
2.52516e-05
2.14892e-05
2.40999e-05
2.25015e-05
1.97767e-05
2.04032e-05
1.92091e-05
1.47039e-05
1.91917e-05
1.13793e-05
1.79788e-05
9.75093e-06
1.65811e-05
1.21941e-05
1.71703e-05
1.8549e-05
1.91195e-05
2.23268e-05
2.33127e-05
2.18355e-05
2.38712e-05
1.99716e-05
2.29989e-05
2.08059e-05
1.83206e-05
1.95239e-05
1.82108e-05
1.23744e-05
1.82289e-05
8.86943e-06
1.75801e-05
9.00591e-06
1.77472e-05
1.26425e-05
1.73439e-05
1.87943e-05
1.86809e-05
2.17903e-05
2.1655e-05
2.03649e-05
2.50953e-05
2.02322e-05
2.41873e-05
2.15276e-05
1.8568e-05
2.04314e-05
1.88321e-05
1.29719e-05
1.98543e-05
1.00327e-05
1.92291e-05
9.64818e-06
1.85648e-05
1.27749e-05
1.78949e-05
1.97702e-05
1.89201e-05
2.31273e-05
2.27099e-05
2.08986e-05
2.40791e-05
1.72782e-05
2.2967e-05
2.03945e-05
1.57143e-05
1.99838e-05
1.79405e-05
1.03727e-05
1.94093e-05
7.13099e-06
1.89864e-05
7.45039e-06
1.83028e-05
1.11459e-05
1.61353e-05
1.93994e-05
1.64186e-05
2.18651e-05
2.1018e-05
1.78144e-05
2.51613e-05
1.83568e-05
2.46926e-05
2.07642e-05
1.6907e-05
2.11111e-05
1.84098e-05
1.07271e-05
2.13825e-05
7.75011e-06
2.11116e-05
8.07885e-06
2.02429e-05
1.19748e-05
1.79885e-05
2.06368e-05
1.77189e-05
2.40169e-05
2.19883e-05
1.94853e-05
2.41661e-05
1.40392e-05
2.3805e-05
1.92487e-05
1.23732e-05
2.11551e-05
1.74508e-05
6.65938e-06
2.11166e-05
3.62759e-06
2.08254e-05
4.27097e-06
1.93038e-05
8.33966e-06
1.46298e-05
1.97008e-05
1.35761e-05
2.25586e-05
1.94974e-05
1.47302e-05
2.58294e-05
1.55073e-05
2.56693e-05
1.97935e-05
1.37082e-05
2.2413e-05
1.77058e-05
7.69123e-06
2.29623e-05
4.61347e-06
2.28303e-05
5.36408e-06
2.14906e-05
9.48672e-06
1.73994e-05
2.16497e-05
1.5232e-05
2.49749e-05
2.08193e-05
1.66356e-05
2.51004e-05
7.59956e-06
2.64075e-05
1.82656e-05
5.41511e-06
2.43682e-05
1.68566e-05
-1.20978e-06
2.46759e-05
-3.68651e-06
2.4332e-05
-2.63134e-06
2.1727e-05
1.92013e-06
1.20389e-05
2.11042e-05
7.48202e-06
2.46295e-05
1.78388e-05
8.77467e-06
2.62251e-05
1.03518e-05
2.75163e-05
1.76292e-05
8.22357e-06
2.50229e-05
1.59464e-05
1.73332e-06
2.51609e-05
-1.22624e-06
2.48686e-05
-1.64318e-07
2.26634e-05
4.21076e-06
1.55279e-05
2.18433e-05
1.01737e-05
2.62483e-05
1.80022e-05
1.17932e-05
2.82968e-05
-6.74541e-06
3.40816e-05
1.44291e-05
-1.19369e-05
3.40268e-05
1.38416e-05
-1.98764e-05
3.23705e-05
-2.06244e-05
3.13042e-05
-1.89249e-05
2.70516e-05
-1.40454e-05
6.7995e-06
2.45922e-05
-6.65706e-06
3.09181e-05
1.29296e-05
-5.59257e-06
-0.0109663
-0.0105734
-0.0102671
-0.0100552
-0.00993841
-0.00992504
-0.0100449
-0.0102785
-0.0106201
-0.0110457
-0.0115332
-0.0120316
-0.0124779
-0.0127941
-0.0129288
-0.0128922
-0.012693
-0.0123463
-0.011902
-0.0114229
0.00233059
0.0022851
0.00215398
0.00199241
0.00183828
0.00174801
0.00167883
0.00159356
0.00147137
0.00131696
0.00111483
0.000891564
0.000702064
0.000607314
0.000668649
0.000935874
0.00131272
0.00170594
0.00203835
0.0022539
-0.00233475
-0.00209818
-0.00191148
-0.00177473
-0.00172445
-0.00177978
-0.00190702
-0.00205632
-0.00227377
-0.00252937
-0.00286061
-0.00321198
-0.00351571
-0.00368717
-0.00372515
-0.00365108
-0.00346397
-0.00318673
-0.0028856
-0.00259623
0.00290505
0.00296905
0.00299374
0.00301155
0.00301669
0.00301686
0.00295027
0.0028723
0.00270582
0.00251312
0.0021854
0.00181618
0.00150867
0.00137701
0.00150342
0.00176226
0.00210059
0.0024062
0.00264109
0.00280471
-0.000459439
-0.000311285
-0.000237953
-0.000190509
-0.00022763
-0.000243072
-0.000304176
-0.000350765
-0.00050587
-0.000701673
-0.00112178
-0.00162742
-0.00205628
-0.00228647
-0.0023115
-0.00213
-0.00177271
-0.00136438
-0.000982911
-0.000675337
0.00201918
0.00212109
0.00217192
0.0022179
0.00221437
0.00220438
0.00212164
0.00205014
0.00185479
0.00163101
0.00111831
0.00058291
0.000207512
0.000146043
0.000359241
0.000716002
0.00109385
0.00142157
0.00168566
0.00188408
5.88405e-05
0.00010321
0.000107631
0.00011214
8.99519e-05
0.000112049
8.17191e-05
7.44535e-05
-7.22069e-05
-0.000282253
-0.000888418
-0.00153324
-0.00193478
-0.00199028
-0.00169595
-0.00124461
-0.00078784
-0.000431615
-0.000179387
-2.3004e-05
0.00125225
0.00132254
0.00135539
0.00138952
0.00136516
0.00135136
0.00127441
0.00120851
0.00102066
0.000769466
0.000116626
-0.000484558
-0.000748862
-0.000565856
-0.000170154
0.000239526
0.000598939
0.0008522
0.00103781
0.00116512
0.000172166
0.000182261
0.000170049
0.000171339
0.000163924
0.000188182
0.000168277
0.000163383
4.02635e-05
-0.000181564
-0.000861861
-0.00149874
-0.00171066
-0.00144903
-0.000965014
-0.000551617
-0.000225482
-3.28153e-05
8.87935e-05
0.000148784
0.000741208
0.000781417
0.000797762
0.000813403
0.00079069
0.000775452
0.000715634
0.000660554
0.000516598
0.000289189
-0.000336385
-0.00084386
-0.000851574
-0.000552832
-0.00013109
0.00016639
0.000397173
0.000528525
0.000628734
0.000693259
0.000177907
0.000181823
0.000171692
0.000177501
0.000172172
0.000190473
0.000175811
0.000179718
9.7991e-05
-4.75603e-05
-0.000622619
-0.00115419
-0.00109397
-0.000791601
-0.000406156
-0.000171922
5.66573e-06
8.76778e-05
0.000146062
0.000169024
0.000435224
0.000456194
0.000462243
0.000468428
0.000449324
0.00043634
0.000392532
0.000356485
0.000264942
0.00013854
-0.00032608
-0.000618427
-0.000504891
-0.000238138
3.37903e-05
0.00017037
0.000283043
0.000331733
0.000381451
0.000410162
0.00015513
0.000159847
0.000154992
0.000162373
0.000157684
0.000173138
0.000163893
0.000190267
0.00015561
0.000180366
-0.00019952
-0.000574298
-0.000487931
-0.000327102
-0.000117274
-2.53903e-05
6.62617e-05
9.8741e-05
0.00013445
0.000146842
0.00026151
0.000272163
0.000273004
0.000275383
0.000259174
0.00024908
0.000216111
0.000197394
0.000150398
0.000141741
-8.05929e-05
-0.000197593
-0.000124971
-9.94219e-06
0.000111801
0.000143126
0.000194665
0.000207215
0.000235053
0.000247615
0.000127041
0.000132857
0.000131733
0.000138823
0.000134942
0.00014844
0.000144056
0.000185003
0.000191338
0.000365224
0.000228793
-0.00014638
-0.000154479
-0.000139787
-4.83984e-05
-1.0681e-05
5.42811e-05
7.54488e-05
0.000106245
0.00011719
0.00016572
0.000171437
0.000170263
0.000170973
0.000157347
0.000148959
0.000121978
0.000109452
7.78321e-05
0.000144839
0.000251584
8.34885e-06
-2.29712e-05
-1.51606e-05
5.4102e-05
6.75411e-05
0.000114662
0.00012546
0.000148735
0.000156424
0.000102349
0.000107862
0.000108356
0.000114006
0.00011071
0.000120109
0.000116326
0.000141113
0.000130284
0.000185613
0.000108636
-6.10778e-05
-5.49928e-05
-7.63269e-05
-1.49755e-05
-4.54983e-06
4.24826e-05
5.70163e-05
8.30912e-05
9.25856e-05
0.000114032
0.000117009
0.000115343
0.00011529
0.000104306
9.71262e-05
7.6068e-05
6.30677e-05
4.12927e-05
4.32057e-05
7.5281e-05
4.59271e-06
2.90976e-05
2.14882e-05
6.14857e-05
5.80901e-05
8.65436e-05
8.84023e-05
0.000104147
0.000107828
8.35893e-05
8.77605e-05
8.85592e-05
9.23975e-05
8.9395e-05
9.49454e-05
9.2129e-05
0.000104144
9.66843e-05
0.000106123
6.34026e-05
-2.57678e-05
-1.74617e-05
-4.13815e-05
2.15759e-07
3.43055e-06
3.80207e-05
4.75981e-05
6.80583e-05
7.52048e-05
8.57138e-05
8.7131e-05
8.56579e-05
8.52257e-05
7.67286e-05
7.08495e-05
5.51608e-05
4.31339e-05
2.73051e-05
1.70775e-05
3.10699e-05
8.93176e-06
3.95667e-05
3.09286e-05
5.91196e-05
5.14157e-05
7.02229e-05
6.87931e-05
7.97373e-05
8.13109e-05
7.04819e-05
7.2977e-05
7.35957e-05
7.57818e-05
7.27059e-05
7.54307e-05
7.29852e-05
7.74331e-05
7.36827e-05
7.00073e-05
4.88278e-05
-5.58479e-06
5.06395e-07
-1.95373e-05
9.7385e-06
1.0828e-05
3.6571e-05
4.31959e-05
5.88221e-05
6.36401e-05
6.96955e-05
7.00736e-05
6.91007e-05
6.84632e-05
6.20258e-05
5.75481e-05
4.6294e-05
3.60874e-05
2.57265e-05
1.41747e-05
2.27219e-05
1.40268e-05
4.07104e-05
3.28635e-05
5.37598e-05
4.63742e-05
5.96704e-05
5.77758e-05
6.57647e-05
6.63207e-05
6.18999e-05
6.26852e-05
6.32068e-05
6.40132e-05
6.08584e-05
6.16507e-05
5.91596e-05
5.91403e-05
5.81349e-05
5.01429e-05
4.17979e-05
6.19388e-06
1.24238e-05
-2.85912e-06
1.84467e-05
1.86321e-05
3.73722e-05
4.20314e-05
5.35584e-05
5.64089e-05
6.05909e-05
5.98439e-05
5.95387e-05
5.86332e-05
5.35199e-05
5.0256e-05
4.30691e-05
3.40845e-05
2.8726e-05
1.76205e-05
2.47589e-05
1.82086e-05
3.95138e-05
3.2013e-05
4.83814e-05
4.28695e-05
5.25858e-05
5.14759e-05
5.75249e-05
5.73464e-05
5.65847e-05
5.56764e-05
5.64591e-05
5.62671e-05
5.288e-05
5.26704e-05
5.01334e-05
4.71665e-05
4.82288e-05
3.88361e-05
3.79213e-05
1.37915e-05
2.15632e-05
1.00135e-05
2.60377e-05
2.59688e-05
3.89912e-05
4.25189e-05
5.07785e-05
5.19035e-05
5.53463e-05
5.33551e-05
5.38687e-05
5.24909e-05
4.82203e-05
4.63402e-05
4.14008e-05
3.3519e-05
3.27931e-05
2.11432e-05
2.93051e-05
2.07668e-05
3.82486e-05
3.11474e-05
4.40226e-05
4.0774e-05
4.79002e-05
4.80336e-05
5.2507e-05
5.17497e-05
5.31954e-05
5.10509e-05
5.24891e-05
5.10966e-05
4.78895e-05
4.72691e-05
4.51324e-05
3.97371e-05
4.26994e-05
3.23617e-05
3.67216e-05
1.90492e-05
2.86306e-05
1.88304e-05
3.18683e-05
3.18022e-05
4.06245e-05
4.37525e-05
4.9095e-05
4.92152e-05
5.24839e-05
4.85495e-05
5.05638e-05
4.86602e-05
4.4502e-05
4.37101e-05
4.03884e-05
3.27229e-05
3.58108e-05
2.34447e-05
3.31935e-05
2.24817e-05
3.7933e-05
3.04935e-05
4.14424e-05
4.00789e-05
4.4529e-05
4.63997e-05
4.9582e-05
4.80178e-05
5.18841e-05
4.76372e-05
5.03806e-05
4.77486e-05
4.41414e-05
4.48504e-05
4.21232e-05
3.51616e-05
4.13137e-05
2.82212e-05
3.78216e-05
2.15626e-05
3.38703e-05
2.48401e-05
3.5498e-05
3.65098e-05
4.15226e-05
4.52047e-05
4.80063e-05
4.69066e-05
5.04163e-05
4.49892e-05
4.88789e-05
4.56527e-05
4.1821e-05
4.22566e-05
3.99125e-05
3.07683e-05
3.81208e-05
2.37302e-05
3.64506e-05
2.29724e-05
3.87659e-05
2.952e-05
3.98369e-05
3.99293e-05
4.2295e-05
4.59777e-05
4.72008e-05
4.54823e-05
5.16314e-05
4.39495e-05
4.95998e-05
4.62455e-05
4.10876e-05
4.33049e-05
4.07638e-05
3.18949e-05
4.16461e-05
2.54985e-05
3.97858e-05
2.26765e-05
3.78055e-05
2.78328e-05
3.81449e-05
4.00497e-05
4.07761e-05
4.66965e-05
4.78551e-05
4.47832e-05
4.97859e-05
4.12943e-05
4.8127e-05
4.36268e-05
3.85486e-05
4.21136e-05
3.92292e-05
2.81095e-05
4.07023e-05
2.15634e-05
3.98003e-05
2.14311e-05
3.97707e-05
2.83026e-05
3.83128e-05
4.06569e-05
3.98315e-05
4.61713e-05
4.53978e-05
4.23475e-05
5.15692e-05
4.09915e-05
4.98779e-05
4.43322e-05
3.82367e-05
4.34689e-05
3.98867e-05
2.81473e-05
4.32977e-05
2.24001e-05
4.25741e-05
2.1865e-05
4.13458e-05
2.82789e-05
3.90608e-05
4.238e-05
3.97922e-05
4.83102e-05
4.66645e-05
4.25812e-05
5.03107e-05
3.61924e-05
4.84314e-05
4.24806e-05
3.35936e-05
4.31066e-05
3.8464e-05
2.37332e-05
4.3194e-05
1.75879e-05
4.2858e-05
1.82114e-05
4.13904e-05
2.5551e-05
3.64868e-05
4.21235e-05
3.57928e-05
4.687e-05
4.40609e-05
3.77488e-05
5.19885e-05
3.67481e-05
5.11317e-05
4.26595e-05
3.42854e-05
4.50339e-05
3.88687e-05
2.31119e-05
4.64818e-05
1.73063e-05
4.64456e-05
1.81669e-05
4.45502e-05
2.60018e-05
3.88387e-05
4.41586e-05
3.68618e-05
5.02104e-05
4.50667e-05
3.92657e-05
5.08465e-05
2.97441e-05
5.03896e-05
4.0187e-05
2.69597e-05
4.56636e-05
3.72618e-05
1.62505e-05
4.68275e-05
1.03386e-05
4.68e-05
1.17827e-05
4.37418e-05
2.00093e-05
3.39271e-05
4.31254e-05
3.02261e-05
4.86209e-05
4.1167e-05
3.18056e-05
5.34547e-05
3.03163e-05
5.36103e-05
4.04681e-05
2.72473e-05
4.81934e-05
3.72408e-05
1.59184e-05
5.02378e-05
9.93276e-06
5.04529e-05
1.16973e-05
4.73773e-05
2.01876e-05
3.73125e-05
4.61851e-05
3.12034e-05
5.25291e-05
4.24316e-05
3.31384e-05
5.27962e-05
1.78494e-05
5.55036e-05
3.7779e-05
1.41385e-05
5.19913e-05
3.5593e-05
1.75453e-06
5.36407e-05
-3.4229e-06
5.35076e-05
-1.10986e-06
4.83448e-05
8.08887e-06
2.94447e-05
4.57346e-05
1.90343e-05
5.2712e-05
3.75446e-05
2.09025e-05
5.48545e-05
1.9501e-05
5.81886e-05
3.6215e-05
1.56079e-05
5.43476e-05
3.37613e-05
3.14576e-06
5.56065e-05
-2.63245e-06
5.54805e-05
-1.59177e-07
5.0536e-05
8.95696e-06
3.35675e-05
4.7297e-05
2.07021e-05
5.59007e-05
3.69209e-05
2.30754e-05
5.81337e-05
-5.04906e-06
6.8502e-05
3.11151e-05
-1.32308e-05
6.84033e-05
3.03135e-05
-2.78401e-05
6.68951e-05
-3.06629e-05
6.55885e-05
-2.72181e-05
5.74071e-05
-1.73842e-05
2.13825e-05
5.1571e-05
-3.39429e-06
6.32368e-05
2.89531e-05
-1.64158e-06
-0.0135031
-0.0129536
-0.0125037
-0.0121755
-0.0119831
-0.0119557
-0.0121099
-0.0124242
-0.0128877
-0.0134648
-0.0141193
-0.0147832
-0.0153751
-0.0158008
-0.0159956
-0.0159671
-0.0157275
-0.0152978
-0.014736
-0.0141151
0.00194221
0.0019993
0.00193285
0.00179816
0.00164051
0.00152481
0.00138851
0.00121354
0.000978675
0.000693693
0.000347463
-1.97154e-05
-0.000331948
-0.000505898
-0.000461556
-0.000149197
0.000329423
0.000864387
0.00135687
0.00172963
-0.0027425
-0.00243356
-0.00221601
-0.00207994
-0.00206496
-0.00217172
-0.00236804
-0.00260721
-0.0029412
-0.00333811
-0.00383759
-0.00436012
-0.00480324
-0.00504317
-0.00507236
-0.00489131
-0.00453047
-0.00405438
-0.00356466
-0.00311875
0.00337632
0.0034544
0.00347352
0.00347676
0.00345445
0.00341072
0.00328522
0.00313001
0.00285196
0.00251601
0.00200149
0.00144837
0.00102048
0.000883431
0.00113216
0.00157739
0.00212482
0.00261425
0.00298508
0.00323379
-0.00028651
-0.000126899
-5.52628e-05
-1.83395e-05
-7.87025e-05
-0.000119376
-0.000228808
-0.000341932
-0.000608361
-0.000958562
-0.00159803
-0.00231088
-0.0028407
-0.00304559
-0.00291508
-0.00251786
-0.00195284
-0.00138391
-0.000897896
-0.000531037
0.00247141
0.00259104
0.00264747
0.00269447
0.00267188
0.00263868
0.00250746
0.00237066
0.00206012
0.00167267
0.000916655
0.000183856
-0.000248389
-0.000194696
0.000210009
0.000765368
0.00130133
0.00173623
0.00206853
0.00230987
0.000288064
0.000346329
0.000353768
0.000356498
0.000324893
0.000333258
0.000265405
0.000204644
-5.11924e-05
-0.000428497
-0.00130207
-0.00214064
-0.00256553
-0.00247374
-0.0019747
-0.0013426
-0.000754115
-0.000313977
-7.14514e-06
0.000184616
0.00158
0.00166884
0.00170889
0.00174566
0.00170887
0.00167909
0.00156321
0.00144327
0.0011478
0.000726956
-0.000198326
-0.00096411
-0.00119036
-0.000849752
-0.000263045
0.00028781
0.000748885
0.00106895
0.00130414
0.00146749
0.000368219
0.000389975
0.000380028
0.000383761
0.000368371
0.000384124
0.000334951
0.000287918
7.03527e-05
-0.000313039
-0.00126669
-0.00205158
-0.00218956
-0.00175925
-0.00110319
-0.000574292
-0.000165039
8.03541e-05
0.000241344
0.000327871
0.000964337
0.00101724
0.00103758
0.00105467
0.0010228
0.000996982
0.000908231
0.00081314
0.000583767
0.000208012
-0.000673275
-0.0012866
-0.00119463
-0.000742252
-0.000180653
0.00020358
0.000500727
0.000674689
0.000809891
0.000898981
0.000327759
0.000339771
0.000330868
0.000339142
0.000327569
0.000340875
0.000305426
0.000282301
0.000132293
-0.000135902
-0.000945058
-0.00156343
-0.00139108
-0.000958992
-0.00045949
-0.000160937
6.9039e-05
0.000182308
0.000267348
0.000307371
0.000584792
0.000613594
0.000621317
0.000628653
0.000602458
0.000583022
0.000519567
0.000459517
0.000312208
8.60615e-05
-0.000575604
-0.000908305
-0.000692271
-0.000323192
3.24135e-05
0.000211294
0.000363131
0.00043425
0.000505969
0.000549
0.000265031
0.000275457
0.000271404
0.000280956
0.000271526
0.000285064
0.000262844
0.000278818
0.000205902
0.000170786
-0.000373618
-0.000791191
-0.000619847
-0.000391848
-0.000119059
2.07044e-07
0.000123211
0.000172046
0.000225656
0.00024869
0.00036321
0.000378844
0.000380281
0.000383719
0.000361976
0.000348338
0.000302552
0.000273346
0.000197831
0.000146158
-0.000189925
-0.000321703
-0.000184764
-2.63121e-05
0.000136507
0.000181526
0.000255834
0.000279007
0.000321338
0.000342304
0.000207233
0.000217275
0.000216775
0.000225749
0.000218252
0.000231717
0.000219768
0.00026151
0.000253586
0.000423187
0.000204979
-0.000227816
-0.00019383
-0.000161962
-3.68166e-05
1.07518e-05
9.77406e-05
0.000128574
0.000172983
0.000191215
0.000237503
0.000246603
0.000245601
0.00024722
0.000229143
0.000218686
0.000182582
0.000166188
0.000120314
0.000187704
0.000272664
-3.07838e-05
-4.11815e-05
-2.5174e-05
7.09683e-05
9.14529e-05
0.000157375
0.000175165
0.00020978
0.000223081
0.00016222
0.000170833
0.000171765
0.000178881
0.000172658
0.000182324
0.000173221
0.000199583
0.000179576
0.000238992
0.000132094
-8.80791e-05
-6.90622e-05
-9.18718e-05
-6.39228e-06
9.0776e-06
7.43389e-05
9.57529e-05
0.000132853
0.000147602
0.000167559
0.000172829
0.000171153
0.000171776
0.000157171
0.000148485
0.000120517
0.000104603
7.35326e-05
7.39556e-05
9.73631e-05
-5.60417e-06
3.07232e-05
2.03552e-05
7.8841e-05
7.72408e-05
0.000119796
0.000125714
0.000150119
0.000157515
0.000130287
0.000136565
0.000137595
0.00014242
0.00013693
0.000142491
0.000135653
0.000147799
0.000134297
0.000142341
8.55928e-05
-3.37898e-05
-1.72972e-05
-4.70865e-05
1.14439e-05
1.64772e-05
6.47638e-05
7.86124e-05
0.000107489
0.000118191
0.000128151
0.000131015
0.000129451
0.000129425
0.00011798
0.000110868
8.99612e-05
7.50367e-05
5.27766e-05
3.84867e-05
4.83217e-05
9.59944e-06
5.01861e-05
3.66772e-05
7.81516e-05
6.98112e-05
9.88675e-05
9.95482e-05
0.000116934
0.000120858
0.000108897
0.000112628
0.000113326
0.000116043
0.000110763
0.000113211
0.000107594
0.000111027
0.000103404
9.5974e-05
6.81535e-05
-4.54732e-06
8.11775e-06
-1.78126e-05
2.38586e-05
2.52071e-05
6.10825e-05
7.02855e-05
9.21767e-05
9.92368e-05
0.000105396
0.000106502
0.000105446
0.000104943
9.60722e-05
9.0582e-05
7.54541e-05
6.24293e-05
4.79864e-05
3.16921e-05
3.87885e-05
2.03454e-05
5.54147e-05
4.28115e-05
7.36193e-05
6.49253e-05
8.57797e-05
8.50524e-05
9.78346e-05
9.97921e-05
9.52381e-05
9.64738e-05
9.70471e-05
9.79766e-05
9.28166e-05
9.31591e-05
8.81239e-05
8.63729e-05
8.3184e-05
7.07914e-05
5.9991e-05
1.25856e-05
2.46421e-05
4.36933e-06
3.50278e-05
3.48807e-05
6.10302e-05
6.7318e-05
8.34276e-05
8.75424e-05
9.22643e-05
9.15463e-05
9.12794e-05
9.02215e-05
8.30045e-05
7.89492e-05
6.89844e-05
5.72239e-05
4.97848e-05
3.39075e-05
4.14825e-05
2.79818e-05
5.63742e-05
4.46227e-05
6.87062e-05
6.20133e-05
7.73121e-05
7.70435e-05
8.66361e-05
8.71446e-05
8.69016e-05
8.56881e-05
8.66696e-05
8.62322e-05
8.09507e-05
8.0297e-05
7.57089e-05
7.05026e-05
7.08385e-05
5.68372e-05
5.61476e-05
2.36901e-05
3.70413e-05
2.13055e-05
4.46011e-05
4.41252e-05
6.24264e-05
6.71683e-05
7.86972e-05
8.03321e-05
8.46683e-05
8.19867e-05
8.28187e-05
8.09515e-05
7.47643e-05
7.24016e-05
6.53926e-05
5.46906e-05
5.36631e-05
3.70831e-05
4.72977e-05
3.2746e-05
5.65886e-05
4.56616e-05
6.47559e-05
6.07679e-05
7.19168e-05
7.294e-05
7.99273e-05
7.92939e-05
8.17656e-05
7.8563e-05
8.05734e-05
7.85112e-05
7.34783e-05
7.26077e-05
6.88161e-05
6.06823e-05
6.43327e-05
4.90228e-05
5.56998e-05
3.12797e-05
4.65633e-05
3.29316e-05
5.19174e-05
5.16405e-05
6.40523e-05
6.83985e-05
7.59024e-05
7.59696e-05
8.05256e-05
7.50159e-05
7.79115e-05
7.51189e-05
6.90418e-05
6.81962e-05
6.32455e-05
5.24764e-05
5.69495e-05
3.91492e-05
5.25415e-05
3.5838e-05
5.75731e-05
4.63625e-05
6.26284e-05
6.10636e-05
6.81139e-05
7.12525e-05
7.60419e-05
7.40806e-05
7.95982e-05
7.33211e-05
7.73291e-05
7.35255e-05
6.79702e-05
6.90012e-05
6.47519e-05
5.44769e-05
6.30063e-05
4.39952e-05
5.79865e-05
3.50685e-05
5.3709e-05
4.07482e-05
5.65316e-05
5.77922e-05
6.48671e-05
7.01802e-05
7.41417e-05
7.24424e-05
7.77841e-05
6.97441e-05
7.54314e-05
7.07578e-05
6.48412e-05
6.59246e-05
6.21273e-05
4.91902e-05
5.98471e-05
3.88904e-05
5.71765e-05
3.69229e-05
5.96629e-05
4.61413e-05
6.13825e-05
6.18637e-05
6.54657e-05
7.11212e-05
7.30014e-05
7.04087e-05
7.90278e-05
6.79553e-05
7.60877e-05
7.10107e-05
6.34362e-05
6.69089e-05
6.28318e-05
4.97805e-05
6.39473e-05
4.03401e-05
6.13239e-05
3.65822e-05
5.91881e-05
4.45588e-05
5.97878e-05
6.25287e-05
6.36836e-05
7.21765e-05
7.35719e-05
6.9212e-05
7.69587e-05
6.43618e-05
7.4436e-05
6.77792e-05
6.00299e-05
6.5596e-05
6.0994e-05
4.50284e-05
6.33432e-05
3.55853e-05
6.19984e-05
3.50794e-05
6.18216e-05
4.50026e-05
5.99424e-05
6.34918e-05
6.22849e-05
7.17781e-05
7.06292e-05
6.60105e-05
7.8958e-05
6.3294e-05
7.64312e-05
6.82361e-05
5.8982e-05
6.71823e-05
6.15411e-05
4.42797e-05
6.66086e-05
3.57929e-05
6.56454e-05
3.51876e-05
6.4107e-05
4.48449e-05
6.08075e-05
6.58206e-05
6.18807e-05
7.44246e-05
7.18163e-05
6.56951e-05
7.76221e-05
5.71878e-05
7.4999e-05
6.58637e-05
5.30843e-05
6.7004e-05
5.97974e-05
3.85587e-05
6.70241e-05
2.97024e-05
6.66215e-05
3.05798e-05
6.45996e-05
4.13793e-05
5.78044e-05
6.57939e-05
5.689e-05
7.30837e-05
6.86206e-05
5.96815e-05
7.96032e-05
5.68211e-05
7.82614e-05
6.57194e-05
5.28561e-05
6.94914e-05
6.00305e-05
3.67532e-05
7.12358e-05
2.83066e-05
7.12812e-05
2.96893e-05
6.86186e-05
4.12403e-05
6.02065e-05
6.84015e-05
5.73523e-05
7.71303e-05
6.93908e-05
6.05104e-05
7.84623e-05
4.79984e-05
7.7834e-05
6.25981e-05
4.36637e-05
7.06889e-05
5.80077e-05
2.79305e-05
7.22913e-05
1.93808e-05
7.23997e-05
2.15636e-05
6.81824e-05
3.36762e-05
5.44409e-05
6.74826e-05
4.90963e-05
7.57117e-05
6.45857e-05
5.12972e-05
8.15673e-05
4.72391e-05
8.19567e-05
6.24578e-05
4.249e-05
7.41971e-05
5.7656e-05
2.58915e-05
7.68608e-05
1.73075e-05
7.72845e-05
2.0023e-05
7.27829e-05
3.25959e-05
5.77364e-05
7.12316e-05
4.89676e-05
8.05405e-05
6.54468e-05
5.15037e-05
8.10055e-05
3.20565e-05
8.47144e-05
5.89862e-05
2.65119e-05
7.92732e-05
5.54788e-05
8.57326e-06
8.14652e-05
9.07021e-07
8.14743e-05
4.34762e-06
7.43333e-05
1.77855e-05
4.84835e-05
7.09315e-05
3.42099e-05
8.11973e-05
5.93217e-05
3.66885e-05
8.36026e-05
3.21499e-05
8.85655e-05
5.66834e-05
2.61766e-05
8.30034e-05
5.29985e-05
7.94013e-06
8.46552e-05
-2.91776e-07
8.46444e-05
3.45555e-06
7.74421e-05
1.69258e-05
5.24109e-05
7.30985e-05
3.44244e-05
8.54422e-05
5.79167e-05
3.74494e-05
8.7209e-05
4.29487e-06
0.000100617
5.05899e-05
-6.46751e-06
9.946e-05
4.89031e-05
-2.71499e-05
9.78479e-05
-3.21141e-05
9.64642e-05
-2.72441e-05
8.53243e-05
-1.30129e-05
3.84605e-05
7.79193e-05
7.12706e-06
9.38524e-05
4.83468e-05
9.5389e-06
-0.0149195
-0.0142938
-0.0137794
-0.0134035
-0.0131889
-0.013172
-0.0133602
-0.0137314
-0.0142718
-0.0149385
-0.0156874
-0.0164393
-0.017102
-0.0175718
-0.0177797
-0.0177339
-0.0174498
-0.0169554
-0.0163166
-0.0156133
0.00142591
0.00153482
0.00150523
0.00139147
0.00124378
0.00111979
0.000943319
0.000711014
0.000400787
2.86385e-05
-0.000411043
-0.000866077
-0.00124593
-0.00145501
-0.00140289
-0.00104751
-0.000500993
0.000116854
0.000694867
0.00114673
-0.00309886
-0.00274159
-0.00250091
-0.00236147
-0.0023709
-0.00251129
-0.0027554
-0.00305943
-0.00347737