/*--------------------------------*- C++ -*----------------------------------*\
| =========                 |                                                 |
| \\      /  F ield         | OpenFOAM: The Open Source CFD Toolbox           |
|  \\    /   O peration     | Version:  2.4.0                                 |
|   \\  /    A nd           | Web:      www.OpenFOAM.org                      |
|    \\/     M anipulation  |                                                 |
\*---------------------------------------------------------------------------*/
FoamFile
{
    version     2.0;
    format      ascii;
    class       volScalarField;
    location    "300";
    object      p;
}
// * * * * * * * * * * * * * * * * * * * * * * * * * * * * * * * * * * * * * //

dimensions      [0 2 -2 0 0 0 0];

internalField   nonuniform List<scalar> 
283312
(
-0.00624762
-0.00630717
-0.00654701
-0.00688702
-0.00723912
-0.00753395
-0.00776348
-0.00792315
-0.00804567
-0.00815496
-0.00827147
-0.00838206
-0.00845468
-0.00843382
-0.0082851
-0.00801549
-0.00763681
-0.00718508
-0.00674092
-0.00640205
0.0021442
0.00164307
0.00121785
0.000949287
0.000850205
0.000915466
0.00105814
0.00119865
0.00130886
0.00139658
0.00146431
0.00154374
0.00167235
0.00187275
0.00215693
0.00252381
0.00283763
0.00298765
0.00291097
0.00260665
-0.00231035
-0.00215591
-0.00192953
-0.00168712
-0.00149336
-0.00139552
-0.00137728
-0.00138389
-0.00143339
-0.00147545
-0.00150602
-0.00148499
-0.00141441
-0.00131675
-0.00127324
-0.00138268
-0.00162605
-0.00192148
-0.00218305
-0.00232411
0.00147415
0.00164789
0.00179218
0.00190727
0.00199027
0.00205897
0.00206556
0.00207166
0.00203808
0.00204871
0.0020663
0.00211385
0.00214139
0.0020975
0.00196836
0.00172694
0.00147836
0.0012977
0.00124641
0.00132329
-0.000745269
-0.000546859
-0.000430113
-0.000351772
-0.000348451
-0.000335863
-0.00034762
-0.000334167
-0.000364221
-0.000341053
-0.000349314
-0.000405154
-0.000584253
-0.000903726
-0.00132869
-0.00166656
-0.0017554
-0.00161293
-0.00132749
-0.00101142
0.00119887
0.00130817
0.00136588
0.00141144
0.00142518
0.00143251
0.00139796
0.0013847
0.00132025
0.00132999
0.00127528
0.00115145
0.000873396
0.000512163
0.000246263
0.000177478
0.000308386
0.000552925
0.000818783
0.00104231
-0.000151453
-0.000111817
-0.000104753
-9.87561e-05
-0.000109975
-8.493e-05
-8.54433e-05
-5.70931e-05
-8.86304e-05
-6.39004e-05
-0.000177452
-0.000446511
-0.000860609
-0.00126961
-0.00140374
-0.00125175
-0.000938942
-0.000626145
-0.000383914
-0.00023092
0.000759919
0.00080887
0.000832316
0.000857191
0.000845562
0.000841951
0.000804426
0.000783918
0.000715221
0.000705105
0.000548662
0.00023802
-0.000164819
-0.000357618
-0.000308553
-7.95907e-05
0.000203564
0.000429674
0.000591534
0.000694933
-1.19446e-06
7.48077e-07
-9.96774e-06
-1.14292e-05
-1.28124e-05
9.04893e-06
1.08136e-05
3.04938e-05
2.71637e-06
6.17461e-06
-0.000186713
-0.000590908
-0.000992763
-0.00107727
-0.000866517
-0.000578566
-0.000315579
-0.000151897
-5.59415e-05
-1.36396e-05
0.000439554
0.000464071
0.000474807
0.000485297
0.000472524
0.000464145
0.000433801
0.00041142
0.000358305
0.000341251
0.000162071
-0.000206621
-0.00045719
-0.000443896
-0.000213907
9.54283e-06
0.000193093
0.000297986
0.000368581
0.00041018
4.33654e-05
4.14854e-05
3.27258e-05
3.46713e-05
3.39435e-05
4.8945e-05
4.92477e-05
6.53735e-05
4.82188e-05
7.28549e-05
-0.000103397
-0.000531858
-0.000712554
-0.000630914
-0.000389208
-0.000205343
-6.80552e-05
-5.27831e-06
3.16264e-05
4.24048e-05
0.000249942
0.000261659
0.000265431
0.000268584
0.00025745
0.000248693
0.000225176
0.000207519
0.000172304
0.000191222
5.50937e-05
-0.000226148
-0.00033038
-0.000224658
-4.50192e-05
6.86337e-05
0.000153889
0.000190162
0.000220232
0.00023613
5.46878e-05
5.47347e-05
5.03088e-05
5.38087e-05
5.26318e-05
6.38801e-05
6.34955e-05
8.69568e-05
8.35571e-05
0.000189778
7.57489e-05
-0.000271117
-0.000354918
-0.00028965
-0.000144799
-6.35011e-05
4.19295e-06
2.81691e-05
4.81439e-05
5.27983e-05
0.000145024
0.00015018
0.000150357
0.000150659
0.0001409
0.000133116
0.000114027
0.000101814
8.12976e-05
0.00013847
9.79006e-05
-5.10501e-05
-0.000108105
-5.30362e-05
3.36901e-05
7.04311e-05
0.000107872
0.0001176
0.000132483
0.00013825
5.26593e-05
5.44214e-05
5.29742e-05
5.65642e-05
5.53718e-05
6.4364e-05
6.46554e-05
9.31656e-05
0.00010512
0.000279943
0.000266994
-5.06455e-05
-0.000136984
-0.000139551
-7.51675e-05
-3.49428e-05
1.0896e-05
2.66271e-05
4.37709e-05
4.8692e-05
8.88091e-05
9.10039e-05
8.97789e-05
8.90009e-05
8.06704e-05
7.38001e-05
5.74823e-05
4.68481e-05
2.8922e-05
8.59599e-05
0.00019598
3.72046e-05
-1.93456e-05
-1.94306e-05
2.14399e-05
3.48054e-05
6.32602e-05
7.00274e-05
8.17111e-05
8.47576e-05
4.62208e-05
4.84455e-05
4.83639e-05
5.12267e-05
5.01356e-05
5.61472e-05
5.5958e-05
7.23484e-05
6.85055e-05
0.000107095
6.66488e-05
-3.06706e-05
-4.00288e-05
-5.48052e-05
-2.09366e-05
-1.19965e-05
1.46218e-05
2.33425e-05
3.70866e-05
4.16604e-05
5.94039e-05
6.01513e-05
5.86422e-05
5.75596e-05
5.08442e-05
4.49838e-05
3.22225e-05
2.18157e-05
9.80843e-06
9.14029e-06
4.09083e-05
1.00076e-05
1.90286e-05
1.6638e-05
3.63981e-05
3.51602e-05
4.90574e-05
4.91485e-05
5.61237e-05
5.70233e-05
3.95079e-05
4.135e-05
4.16437e-05
4.35164e-05
4.24245e-05
4.58804e-05
4.58415e-05
5.39214e-05
5.15322e-05
5.82574e-05
3.37258e-05
-1.53366e-05
-1.66957e-05
-3.04264e-05
-8.33473e-06
-4.56198e-06
1.45353e-05
2.05885e-05
3.15349e-05
3.52962e-05
4.37455e-05
4.38492e-05
4.25539e-05
4.14729e-05
3.63351e-05
3.16249e-05
2.21556e-05
1.32623e-05
4.50248e-06
-2.32704e-06
1.16893e-05
6.57892e-06
2.28808e-05
2.06476e-05
3.42393e-05
3.03298e-05
3.89116e-05
3.74223e-05
4.20702e-05
4.21586e-05
3.40958e-05
3.52104e-05
3.54678e-05
3.64374e-05
3.5136e-05
3.67619e-05
3.65488e-05
3.98412e-05
3.91599e-05
3.7949e-05
2.55252e-05
-5.09373e-06
-6.08179e-06
-1.70375e-05
-1.88452e-06
4.73683e-07
1.47175e-05
1.92728e-05
2.77937e-05
3.05157e-05
3.50583e-05
3.4841e-05
3.39463e-05
3.2981e-05
2.91746e-05
2.56372e-05
1.88814e-05
1.17976e-05
5.93888e-06
-7.87726e-07
6.93754e-06
7.12196e-06
2.19446e-05
1.98688e-05
2.98984e-05
2.61613e-05
3.20643e-05
3.06058e-05
3.39954e-05
3.38488e-05
3.02624e-05
3.05644e-05
3.07675e-05
3.09967e-05
2.95308e-05
2.98939e-05
2.92677e-05
2.97535e-05
3.01527e-05
2.62872e-05
2.11848e-05
9.19363e-07
1.18679e-06
-6.83382e-06
3.97575e-06
5.50903e-06
1.58788e-05
1.92609e-05
2.56133e-05
2.73564e-05
3.01687e-05
2.95477e-05
2.91058e-05
2.81947e-05
2.52534e-05
2.26745e-05
1.84743e-05
1.25903e-05
9.4084e-06
3.3619e-06
8.62273e-06
8.36641e-06
2.01205e-05
1.7721e-05
2.5645e-05
2.29705e-05
2.72966e-05
2.64883e-05
2.91507e-05
2.88387e-05
2.77617e-05
2.7243e-05
2.75569e-05
2.73077e-05
2.56104e-05
2.52831e-05
2.4322e-05
2.29751e-05
2.40325e-05
1.93737e-05
1.83328e-05
4.85038e-06
6.86101e-06
1.09757e-06
9.09339e-06
1.01459e-05
1.73177e-05
1.98858e-05
2.44894e-05
2.53044e-05
2.73263e-05
2.62133e-05
2.62351e-05
2.52379e-05
2.28617e-05
2.12779e-05
1.84329e-05
1.36174e-05
1.29467e-05
6.74808e-06
1.16906e-05
9.1428e-06
1.85091e-05
1.59858e-05
2.21542e-05
2.0757e-05
2.40337e-05
2.40331e-05
2.61156e-05
2.5661e-05
2.60258e-05
2.50452e-05
2.56291e-05
2.47703e-05
2.31864e-05
2.24844e-05
2.161e-05
1.87824e-05
2.03923e-05
1.53466e-05
1.70647e-05
7.69632e-06
1.12363e-05
6.51255e-06
1.30108e-05
1.3727e-05
1.86426e-05
2.07475e-05
2.37546e-05
2.409e-05
2.57283e-05
2.36836e-05
2.45116e-05
2.34267e-05
2.11542e-05
2.02134e-05
1.84011e-05
1.40521e-05
1.52863e-05
8.98185e-06
1.40788e-05
9.78507e-06
1.766e-05
1.47411e-05
1.99846e-05
1.95772e-05
2.16556e-05
2.26639e-05
2.43236e-05
2.35215e-05
2.54024e-05
2.3427e-05
2.45715e-05
2.31236e-05
2.13098e-05
2.13389e-05
1.99468e-05
1.6335e-05
1.93371e-05
1.28404e-05
1.72954e-05
9.04351e-06
1.4385e-05
1.02874e-05
1.54226e-05
1.65555e-05
1.94408e-05
2.15982e-05
2.3254e-05
2.29287e-05
2.44005e-05
2.1894e-05
2.358e-05
2.18729e-05
1.99798e-05
1.9592e-05
1.84763e-05
1.3484e-05
1.68053e-05
9.75995e-06
1.58846e-05
9.95632e-06
1.76692e-05
1.36153e-05
1.85932e-05
1.88576e-05
2.01832e-05
2.20604e-05
2.28001e-05
2.21468e-05
2.52949e-05
2.15401e-05
2.41469e-05
2.2553e-05
1.98329e-05
2.04648e-05
1.92689e-05
1.47809e-05
1.92546e-05
1.14638e-05
1.8045e-05
9.83477e-06
1.66475e-05
1.22683e-05
1.7231e-05
1.8609e-05
1.91725e-05
2.23781e-05
2.33585e-05
2.18847e-05
2.39141e-05
2.00223e-05
2.30451e-05
2.08566e-05
1.83762e-05
1.9583e-05
1.82669e-05
1.24499e-05
1.82868e-05
8.95249e-06
1.76416e-05
9.088e-06
1.78096e-05
1.27151e-05
1.74031e-05
1.88531e-05
1.87338e-05
2.18414e-05
2.17007e-05
2.0415e-05
2.51383e-05
2.02837e-05
2.42341e-05
2.15796e-05
1.86253e-05
2.04912e-05
1.88897e-05
1.30495e-05
1.99117e-05
1.0117e-05
1.92889e-05
9.73067e-06
1.86255e-05
1.2847e-05
1.79528e-05
1.9828e-05
1.89726e-05
2.31779e-05
2.27556e-05
2.09491e-05
2.41214e-05
1.73308e-05
2.30124e-05
2.04441e-05
1.57718e-05
2.00401e-05
1.79934e-05
1.04498e-05
1.94605e-05
7.21466e-06
1.90404e-05
7.53185e-06
1.83593e-05
1.12176e-05
1.61922e-05
1.9456e-05
1.64717e-05
2.19156e-05
2.10637e-05
1.78663e-05
2.52032e-05
1.84097e-05
2.47384e-05
2.08156e-05
1.69661e-05
2.11682e-05
1.84652e-05
1.08066e-05
2.14338e-05
7.83589e-06
2.11647e-05
8.1617e-06
2.02981e-05
1.20464e-05
1.8044e-05
2.06925e-05
1.77714e-05
2.40665e-05
2.20338e-05
1.95372e-05
2.4207e-05
1.4095e-05
2.38488e-05
1.92969e-05
1.24349e-05
2.12071e-05
1.75004e-05
6.74159e-06
2.11597e-05
3.71519e-06
2.08708e-05
4.35507e-06
1.93538e-05
8.41283e-06
1.4685e-05
1.97552e-05
1.36304e-05
2.26082e-05
1.9543e-05
1.47852e-05
2.58697e-05
1.55623e-05
2.57132e-05
1.98437e-05
1.37705e-05
2.24661e-05
1.77588e-05
7.77476e-06
2.30061e-05
4.70299e-06
2.2876e-05
5.4495e-06
2.15401e-05
9.55995e-06
1.74529e-05
2.17033e-05
1.52854e-05
2.50234e-05
2.08644e-05
1.66901e-05
2.51388e-05
7.66157e-06
2.64472e-05
1.83118e-05
5.48651e-06
2.44122e-05
1.69022e-05
-1.11543e-06
2.47065e-05
-3.58871e-06
2.43652e-05
-2.53896e-06
2.17678e-05
1.99918e-06
1.20931e-05
2.11555e-05
7.53991e-06
2.46775e-05
1.78845e-05
8.83558e-06
2.62629e-05
1.04122e-05
2.7557e-05
1.76775e-05
8.29328e-06
2.5069e-05
1.59961e-05
1.82611e-06
2.51939e-05
-1.12859e-06
2.49041e-05
-7.21929e-08
2.27052e-05
4.28903e-06
1.55801e-05
2.18946e-05
1.02303e-05
2.62954e-05
1.80476e-05
1.18523e-05
2.83278e-05
-6.66825e-06
3.41107e-05
1.44724e-05
-1.18409e-05
3.40511e-05
1.38822e-05
-1.97507e-05
3.23753e-05
-2.05001e-05
3.13138e-05
-1.881e-05
2.70744e-05
-1.39491e-05
6.85092e-06
2.46364e-05
-6.58928e-06
3.09607e-05
1.29755e-05
-5.51757e-06
-0.0109446
-0.0105518
-0.0102451
-0.0100327
-0.0099155
-0.00990096
-0.0100193
-0.0102514
-0.0105913
-0.0110153
-0.0115016
-0.0119993
-0.0124457
-0.0127629
-0.0128987
-0.0128633
-0.012666
-0.0123214
-0.0118788
-0.0114008
0.00233584
0.00229086
0.00215984
0.00199825
0.0018441
0.00175335
0.00168401
0.00159859
0.00147626
0.00132177
0.00111959
0.000896267
0.000706548
0.000611634
0.000672296
0.0009384
0.00131518
0.00170869
0.00204182
0.00225833
-0.00233749
-0.00209927
-0.00191057
-0.00177195
-0.00171999
-0.00177403
-0.00190041
-0.0020487
-0.00226524
-0.00252
-0.0028507
-0.00320209
-0.00350668
-0.00367977
-0.00371969
-0.00364757
-0.0034629
-0.00318786
-0.00288844
-0.00259967
0.00289798
0.0029629
0.00298844
0.00300701
0.00301263
0.00301335
0.00294701
0.00286937
0.0027032
0.00251086
0.00218349
0.00181425
0.0015058
0.00137292
0.00149807
0.00175566
0.00209306
0.00239808
0.00263286
0.00279689
-0.000462735
-0.000313807
-0.000239698
-0.000191408
-0.000227831
-0.000242682
-0.000303311
-0.000349364
-0.000503862
-0.000698957
-0.00111811
-0.00162334
-0.00205344
-0.00228633
-0.00231326
-0.00213309
-0.00177649
-0.00136842
-0.000986981
-0.000679146
0.00201317
0.00211547
0.00216663
0.00221295
0.00220971
0.00219999
0.00211744
0.00204614
0.00185116
0.00162786
0.00111663
0.000582682
0.000206398
0.000142998
0.000353644
0.000709206
0.00108668
0.00141457
0.00167895
0.00187773
5.60986e-05
0.000100927
0.000105754
0.000110688
8.87326e-05
0.000110988
8.07657e-05
7.35418e-05
-7.27536e-05
-0.00028206
-0.000885157
-0.00152564
-0.00192694
-0.00198579
-0.00169505
-0.00124608
-0.000790539
-0.00043481
-0.000182675
-2.60876e-05
0.00124817
0.00131864
0.00135164
0.00138593
0.00136176
0.00134808
0.00127128
0.00120544
0.00101805
0.000767694
0.000118628
-0.000477483
-0.000739074
-0.000559237
-0.00016813
0.00023792
0.000595445
0.000848038
0.0010335
0.00116091
0.00017017
0.000180573
0.000168612
0.000170117
0.000162793
0.000187046
0.000167141
0.000162137
3.92283e-05
-0.000182072
-0.000859727
-0.00149244
-0.001701
-0.001441
-0.000961524
-0.000551528
-0.000227214
-3.51681e-05
8.6344e-05
0.000146528
0.000738764
0.000779037
0.00079543
0.000811164
0.000788547
0.000773362
0.000713659
0.000658594
0.00051497
0.000288027
-0.000335464
-0.000839924
-0.000845955
-0.000548109
-0.000129237
0.00016604
0.000395491
0.000526302
0.000626293
0.000690802
0.00017662
0.000180706
0.000170713
0.000176631
0.000171347
0.00018963
0.000174964
0.00017877
9.71573e-05
-4.82065e-05
-0.000621843
-0.00115121
-0.00108973
-0.000788157
-0.000404766
-0.000172059
4.596e-06
8.62667e-05
0.000144556
0.00016761
0.000433828
0.000454813
0.00046087
0.000467101
0.000448047
0.000435085
0.000391362
0.000355295
0.000263964
0.000137639
-0.000325975
-0.000616842
-0.00050275
-0.000236359
3.44004e-05
0.000170109
0.000282166
0.000330575
0.000380129
0.000408796
0.000154323
0.000159129
0.000154345
0.000161789
0.000157129
0.000172587
0.00016335
0.00018967
0.000155056
0.000179786
-0.000199357
-0.000573244
-0.000486465
-0.000325971
-0.000116936
-2.56284e-05
6.56102e-05
9.79271e-05
0.000133561
0.000145988
0.000260718
0.000271373
0.00027221
0.000274614
0.000258431
0.00024835
0.000215447
0.000196708
0.000149857
0.000141111
-8.0797e-05
-0.000197072
-0.000124252
-9.36787e-06
0.000111913
0.00014292
0.000194187
0.000206603
0.000234334
0.000246859
0.000126536
0.000132398
0.000131307
0.000138441
0.000134581
0.0001481
0.000143736
0.000184684
0.000191049
0.000364941
0.000228766
-0.000146237
-0.000154268
-0.000139625
-4.84323e-05
-1.09051e-05
5.3881e-05
7.49756e-05
0.000105718
0.000116673
0.000165266
0.000170984
0.000169803
0.000170531
0.00015692
0.000148547
0.000121619
0.000109095
7.76104e-05
0.000144604
0.000251597
8.53483e-06
-2.27931e-05
-1.50787e-05
5.40346e-05
6.73926e-05
0.000114397
0.000125132
0.000148338
0.000156001
0.000102033
0.000107571
0.000108079
0.000113759
0.00011048
0.000119907
0.000116147
0.000140963
0.000130173
0.000185608
0.000108733
-6.09817e-05
-5.48791e-05
-7.62506e-05
-1.50133e-05
-4.66737e-06
4.22622e-05
5.67509e-05
8.27805e-05
9.22741e-05
0.000113769
0.000116747
0.000115075
0.000115038
0.000104063
9.69012e-05
7.58797e-05
6.28987e-05
4.12099e-05
4.3157e-05
7.53382e-05
4.72916e-06
2.92198e-05
2.15732e-05
6.14873e-05
5.80417e-05
8.64154e-05
8.82329e-05
0.000103926
0.000107589
8.33937e-05
8.75799e-05
8.83826e-05
9.22437e-05
8.92526e-05
9.48298e-05
9.20333e-05
0.000104078
9.66527e-05
0.000106145
6.34874e-05
-2.56744e-05
-1.73623e-05
-4.13038e-05
2.16822e-07
3.38585e-06
3.79067e-05
4.7454e-05
6.78775e-05
7.50199e-05
8.55598e-05
8.69809e-05
8.55021e-05
8.5084e-05
7.65931e-05
7.07339e-05
5.50681e-05
4.30687e-05
2.72871e-05
1.71048e-05
3.11349e-05
9.04345e-06
3.96637e-05
3.101e-05
5.91468e-05
5.14137e-05
7.01649e-05
6.87079e-05
7.96138e-05
8.1176e-05
7.03641e-05
7.28695e-05
7.34873e-05
7.56912e-05
7.26227e-05
7.53715e-05
7.294e-05
7.74158e-05
7.3687e-05
7.00433e-05
4.8899e-05
-5.49343e-06
5.92035e-07
-1.94597e-05
9.76196e-06
1.08244e-05
3.65185e-05
4.31232e-05
5.87202e-05
6.35343e-05
6.96066e-05
6.99902e-05
6.9012e-05
6.83879e-05
6.19544e-05
5.74968e-05
4.62554e-05
3.60778e-05
2.57401e-05
1.42312e-05
2.2789e-05
1.41233e-05
4.0791e-05
3.294e-05
5.37965e-05
4.63941e-05
5.96498e-05
5.77375e-05
6.56977e-05
6.62471e-05
6.18325e-05
6.26262e-05
6.31446e-05
6.39656e-05
6.08156e-05
6.16291e-05
5.9146e-05
5.91538e-05
5.81578e-05
5.01937e-05
4.18613e-05
6.28137e-06
1.24987e-05
-2.78339e-06
1.84816e-05
1.86513e-05
3.73555e-05
4.20013e-05
5.3505e-05
5.63532e-05
6.05425e-05
5.98021e-05
5.94917e-05
5.85985e-05
5.34881e-05
5.02429e-05
4.30619e-05
3.41058e-05
2.87545e-05
1.7687e-05
2.4823e-05
1.82972e-05
3.95838e-05
3.2086e-05
4.8422e-05
4.29008e-05
5.25865e-05
5.14653e-05
5.74922e-05
5.73108e-05
5.655e-05
5.565e-05
5.64281e-05
5.62487e-05
5.28649e-05
5.26739e-05
5.01398e-05
4.72003e-05
4.82617e-05
3.88984e-05
3.79798e-05
1.38754e-05
2.16298e-05
1.00864e-05
2.60778e-05
2.60004e-05
3.89955e-05
4.25145e-05
5.07554e-05
5.188e-05
5.53238e-05
5.33405e-05
5.38484e-05
5.24819e-05
4.82136e-05
4.63504e-05
4.14119e-05
3.35585e-05
3.28281e-05
2.12143e-05
2.93638e-05
2.08513e-05
3.8311e-05
3.12176e-05
4.40648e-05
4.08115e-05
4.7914e-05
4.80401e-05
5.2496e-05
5.17388e-05
5.31822e-05
5.10467e-05
5.24792e-05
5.1098e-05
4.78937e-05
4.72892e-05
4.51515e-05
3.97847e-05
4.27365e-05
3.24318e-05
3.67758e-05
1.91313e-05
2.86905e-05
1.89004e-05
3.19104e-05
3.18404e-05
4.06415e-05
4.3764e-05
4.9091e-05
4.9213e-05
5.24782e-05
4.85535e-05
5.05611e-05
4.86673e-05
4.45123e-05
4.37346e-05
4.04101e-05
3.27743e-05
3.58475e-05
2.3519e-05
3.32462e-05
2.25639e-05
3.79892e-05
3.05616e-05
4.1485e-05
4.01198e-05
4.45513e-05
4.64174e-05
4.95853e-05
4.80237e-05
5.18848e-05
4.76485e-05
5.0385e-05
4.77631e-05
4.41596e-05
4.48813e-05
4.21502e-05
3.52193e-05
4.13516e-05
2.82974e-05
3.7871e-05
2.16442e-05
3.39241e-05
2.4909e-05
3.55407e-05
3.65515e-05
4.15475e-05
4.5226e-05
4.80146e-05
4.69189e-05
5.04216e-05
4.50066e-05
4.88877e-05
4.567e-05
4.18431e-05
4.22893e-05
3.99399e-05
3.08285e-05
3.81559e-05
2.38083e-05
3.64966e-05
2.30547e-05
3.88161e-05
2.9587e-05
3.98793e-05
3.99721e-05
4.2323e-05
4.60027e-05
4.72135e-05
4.55003e-05
5.1641e-05
4.39731e-05
4.96138e-05
4.62676e-05
4.11163e-05
4.33422e-05
4.07957e-05
3.19612e-05
4.16818e-05
2.55801e-05
3.98295e-05
2.27597e-05
3.78539e-05
2.79009e-05
3.81872e-05
4.00932e-05
4.08063e-05
4.67239e-05
4.78714e-05
4.48061e-05
4.97981e-05
4.13214e-05
4.81431e-05
4.36508e-05
3.85804e-05
4.21504e-05
3.9259e-05
2.81776e-05
4.07329e-05
2.16465e-05
3.98386e-05
2.15146e-05
3.98145e-05
2.83707e-05
3.83547e-05
4.07007e-05
3.98641e-05
4.62011e-05
4.54169e-05
4.23749e-05
5.1584e-05
4.1023e-05
4.98975e-05
4.4361e-05
3.82744e-05
4.35091e-05
3.99208e-05
2.8222e-05
4.33286e-05
2.24882e-05
4.26107e-05
2.19517e-05
4.13881e-05
2.83483e-05
3.91023e-05
4.2424e-05
3.98264e-05
4.83414e-05
4.6686e-05
4.26123e-05
5.03265e-05
3.62282e-05
4.84513e-05
4.25085e-05
3.36349e-05
4.31437e-05
3.84938e-05
2.38107e-05
4.3217e-05
1.76784e-05
4.28868e-05
1.82991e-05
4.14271e-05
2.56221e-05
3.65282e-05
4.21674e-05
3.58297e-05
4.69028e-05
4.40844e-05
3.77846e-05
5.20054e-05
3.67871e-05
5.11537e-05
4.26917e-05
3.43321e-05
4.50731e-05
3.89033e-05
2.31962e-05
4.65045e-05
1.7403e-05
4.64728e-05
1.82593e-05
4.4585e-05
2.60749e-05
3.88792e-05
4.42022e-05
3.68999e-05
5.02436e-05
4.50917e-05
3.9304e-05
5.08631e-05
2.97896e-05
5.04098e-05
4.02162e-05
2.7013e-05
4.56962e-05
3.72895e-05
1.63419e-05
4.68381e-05
1.04411e-05
4.68156e-05
1.18795e-05
4.37691e-05
2.00865e-05
3.3968e-05
4.31682e-05
3.02683e-05
4.86553e-05
4.11937e-05
3.18505e-05
5.34711e-05
3.03635e-05
5.36313e-05
4.05012e-05
2.73048e-05
4.82271e-05
3.72739e-05
1.60156e-05
5.02477e-05
1.00416e-05
5.04672e-05
1.1799e-05
4.74027e-05
2.02672e-05
3.73516e-05
4.62273e-05
3.12463e-05
5.25627e-05
4.24589e-05
3.31848e-05
5.28104e-05
1.79085e-05
5.5519e-05
3.78074e-05
1.42117e-05
5.20114e-05
3.56165e-05
1.87028e-06
5.363e-05
-3.29907e-06
5.35025e-05
-9.95583e-07
4.8357e-05
8.17885e-06
2.9485e-05
4.57739e-05
1.90849e-05
5.27457e-05
3.75738e-05
2.09599e-05
5.48671e-05
1.95606e-05
5.82041e-05
3.62464e-05
1.56824e-05
5.4368e-05
3.379e-05
3.26411e-06
5.55954e-05
-2.50443e-06
5.54749e-05
-4.15615e-08
5.05468e-05
9.04862e-06
3.36051e-05
4.73358e-05
2.07526e-05
5.59327e-05
3.69502e-05
2.31325e-05
5.81378e-05
-4.96456e-06
6.85018e-05
3.11407e-05
-1.31178e-05
6.83918e-05
3.03302e-05
-2.76741e-05
6.68423e-05
-3.04955e-05
6.55449e-05
-2.70668e-05
5.73906e-05
-1.72656e-05
2.14202e-05
5.16011e-05
-3.32691e-06
6.3264e-05
2.89847e-05
-1.56127e-06
-0.0134746
-0.0129249
-0.0124746
-0.012146
-0.0119529
-0.0119243
-0.0120773
-0.0123901
-0.012852
-0.0134275
-0.0140809
-0.0147442
-0.0153364
-0.0157631
-0.0159591
-0.0159319
-0.0156942
-0.0152664
-0.0147062
-0.0140863
0.00195201
0.00200932
0.00194263
0.00180768
0.00164962
0.00153317
0.00139668
0.0012215
0.000986446
0.000701359
0.000355053
-1.22125e-05
-0.000324654
-0.000498662
-0.000454753
-0.000143169
0.000335821
0.000871505
0.00136499
0.00173876
-0.0027425
-0.00243204
-0.00221262
-0.00207478
-0.00205816
-0.00216362
-0.00235898
-0.00259705
-0.00293005
-0.0033261
-0.0038251
-0.00434773
-0.00479176
-0.00503319
-0.0050641
-0.0048847
-0.0045261
-0.00405223
-0.00356438
-0.00311927
0.00336928
0.00344815
0.00346809
0.00347215
0.00345041
0.00340731
0.00328218
0.0031274
0.00284974
0.0025142
0.002
0.00144692
0.00101831
0.000880449
0.00112838
0.00157253
0.00211889
0.00260735
0.00297759
0.00322628
-0.000290218
-0.000129813
-5.73118e-05
-1.93993e-05
-7.89664e-05
-0.000118902
-0.000227734
-0.000340187
-0.000605871
-0.000955267
-0.00159367
-0.00230586
-0.00283647
-0.00304354
-0.00291466
-0.00251896
-0.00195522
-0.00138725
-0.000901872
-0.000535116
0.00246408
0.00258414
0.00264099
0.00268843
0.00266627
0.00263344
0.00250254
0.00236606
0.00205604
0.00166923
0.000915008
0.00018424
-0.000248225
-0.000195916
0.000206067
0.000759539
0.00129429
0.00172864
0.00206078
0.00230226
0.000284246
0.000343051
0.000350992
0.000354261
0.000322963
0.000331565
0.000263908
0.000203296
-5.19577e-05
-0.000428213
-0.00129791
-0.00213099
-0.00255485
-0.00246663
-0.0019719
-0.00134325
-0.00075691
-0.000317866
-1.14316e-05
0.000180439
0.00157468
0.00166375
0.001704
0.00174101
0.00170448
0.00167489
0.00155925
0.00143948
0.00114471
0.000725108
-0.000195381
-0.000954861
-0.00117769
-0.000840532
-0.00025961
0.000286508
0.000744882
0.00106382
0.00129864
0.00146202
0.000365263
0.000387384
0.000377747
0.000381753
0.000366504
0.000382294
0.000333177
0.000286108
6.89586e-05
-0.000313536
-0.00126366
-0.00204315
-0.00217707
-0.00174897
-0.00109855
-0.000574
-0.000167221
7.72069e-05
0.000237946
0.000324633
0.00096098
0.00101398
0.0010344
0.00105162
0.00101989
0.00099416
0.000905577
0.00081057
0.000581714
0.000206737
-0.000671725
-0.00128113
-0.00118704
-0.000735873
-0.000177968
0.000203326
0.000498619
0.000671751
0.000806589
0.000895615
0.000325768
0.000337982
0.000329246
0.000337665
0.000326161
0.000339473
0.000304057
0.000280869
0.000131109
-0.000136679
-0.000943847
-0.00155932
-0.00138542
-0.00095437
-0.000457525
-0.000161035
6.76175e-05
0.000180331
0.000265167
0.000305251
0.00058278
0.000611608
0.000619353
0.000626761
0.000600637
0.000581243
0.000517908
0.000457867
0.000310885
8.49616e-05
-0.00057527
-0.000906016
-0.000689207
-0.000320639
3.33915e-05
0.000211025
0.000361955
0.000432624
0.000504082
0.000547031
0.00026374
0.000274269
0.000270299
0.000279937
0.000270551
0.000284109
0.000261921
0.000277861
0.000205062
0.000170012
-0.000373332
-0.000789693
-0.00061779
-0.00039023
-0.000118516
-8.36362e-08
0.000122299
0.000170852
0.000224315
0.000247359
0.00036201
0.00037765
0.000379087
0.000382565
0.000360861
0.000347249
0.000301555
0.000272341
0.000197043
0.00014533
-0.000190107
-0.000320927
-0.000183696
-2.54539e-05
0.000136723
0.000181254
0.000255142
0.00027809
0.000320252
0.000341155
0.000206399
0.000216494
0.000216031
0.000225062
0.000217597
0.000231098
0.000219187
0.000260947
0.000253097
0.00042275
0.000204951
-0.000227561
-0.00019344
-0.000161656
-3.68271e-05
1.04412e-05
9.715e-05
0.000127847
0.000172155
0.000190379
0.000236776
0.000245879
0.000244871
0.000246517
0.000228463
0.000218033
0.000182002
0.000165624
0.000119939
0.000187341
0.00027266
-3.05252e-05
-4.09102e-05
-2.50237e-05
7.08963e-05
9.12275e-05
0.000156957
0.000174636
0.000209142
0.000222399
0.00016168
0.00017032
0.000171267
0.000178424
0.000172223
0.00018193
0.000172865
0.000199274
0.000179341
0.000238903
0.000132176
-8.79576e-05
-6.88973e-05
-9.17624e-05
-6.45435e-06
8.88537e-06
7.39861e-05
9.5319e-05
0.000132342
0.000147077
0.00016711
0.000172383
0.000170699
0.000171345
0.000156755
0.000148098
0.000120182
0.000104304
7.33537e-05
7.38403e-05
9.74045e-05
-5.44365e-06
3.0875e-05
2.0458e-05
7.88195e-05
7.71333e-05
0.000119564
0.000125411
0.000149737
0.000157102
0.000129937
0.000136231
0.000137264
0.000142119
0.000136645
0.000142245
0.000135437
0.000147629
0.000134185
0.000142309
8.56611e-05
-3.36894e-05
-1.71826e-05
-4.70017e-05
1.14184e-05
1.63789e-05
6.45596e-05
7.83557e-05
0.000107172
0.000117861
0.000127868
0.000130737
0.000129165
0.00012916
0.000117724
0.000110643
8.97694e-05
7.48884e-05
5.26963e-05
3.84776e-05
4.83731e-05
9.71935e-06
5.02919e-05
3.67628e-05
7.81566e-05
6.97671e-05
9.87374e-05
9.93726e-05
0.0001167
0.000120604
0.000108671
0.000112413
0.000113108
0.00011585
0.000110579
0.000113063
0.000107467
0.000110943
0.000103355
9.59762e-05
6.82103e-05
-4.45254e-06
8.207e-06
-1.7734e-05
2.38602e-05
2.51663e-05
6.09677e-05
7.01362e-05
9.19813e-05
9.9031e-05
0.000105216
0.000106329
0.000105265
0.000104781
9.59165e-05
9.04562e-05
7.53472e-05
6.23662e-05
4.7958e-05
3.17273e-05
3.88443e-05
2.04458e-05
5.54965e-05
4.28887e-05
7.36377e-05
6.49155e-05
8.57084e-05
8.49516e-05
9.769e-05
9.96355e-05
9.50938e-05
9.63395e-05
9.69071e-05
9.78566e-05
9.27032e-05
9.30762e-05
8.80534e-05
8.63434e-05
8.31707e-05
7.08228e-05
6.00426e-05
1.2676e-05
2.47162e-05
4.44537e-06
3.50457e-05
3.48741e-05
6.09698e-05
6.7235e-05
8.33085e-05
8.74168e-05
9.21508e-05
9.14412e-05
9.11665e-05
9.01262e-05
8.29132e-05
7.88855e-05
6.89297e-05
5.72114e-05
4.97838e-05
3.39623e-05
4.15373e-05
2.80742e-05
5.64425e-05
4.46964e-05
6.87324e-05
6.20237e-05
7.72766e-05
7.6989e-05
8.65481e-05
8.70506e-05
8.68116e-05
8.56086e-05
8.65827e-05
8.61628e-05
8.08858e-05
8.02588e-05
7.56755e-05
7.051e-05
7.0846e-05
5.68904e-05
5.61968e-05
2.37781e-05
3.71056e-05
2.13796e-05
4.46282e-05
4.4139e-05
6.23996e-05
6.71269e-05
7.86271e-05
8.02595e-05
8.45986e-05
8.19275e-05
8.2751e-05
8.08997e-05
7.47159e-05
7.23776e-05
6.53703e-05
5.47102e-05
5.36769e-05
3.71498e-05
4.73486e-05
3.28358e-05
5.66483e-05
4.57334e-05
6.47871e-05
6.07909e-05
7.19045e-05
7.29156e-05
7.98765e-05
7.92418e-05
8.17121e-05
7.85215e-05
8.05232e-05
7.84766e-05
7.34477e-05
7.26e-05
6.88072e-05
6.07155e-05
6.43516e-05
4.90915e-05
5.57464e-05
3.13682e-05
4.66204e-05
3.30038e-05
5.19497e-05
5.16666e-05
6.40469e-05
6.83838e-05
7.58644e-05
7.59329e-05
8.04853e-05
7.49889e-05
7.78744e-05
7.50959e-05
6.90231e-05
6.81979e-05
6.32436e-05
5.2518e-05
5.69703e-05
3.92252e-05
5.25872e-05
3.5928e-05
5.76263e-05
4.64338e-05
6.26627e-05
6.10947e-05
6.81173e-05
7.12483e-05
7.60161e-05
7.40577e-05
7.95692e-05
7.33068e-05
7.73043e-05
7.35149e-05
6.79645e-05
6.90137e-05
6.47591e-05
5.45291e-05
6.30301e-05
4.40758e-05
5.80291e-05
3.51589e-05
5.37597e-05
4.08211e-05
5.65669e-05
5.7826e-05
6.4876e-05
7.01831e-05
7.41251e-05
7.24309e-05
7.77637e-05
6.97408e-05
7.54151e-05
7.07538e-05
6.4844e-05
6.59424e-05
6.21377e-05
4.92486e-05
5.98693e-05
3.89756e-05
5.72156e-05
3.70159e-05
5.97096e-05
4.62128e-05
6.14186e-05
6.19002e-05
6.54803e-05
7.11307e-05
7.29927e-05
7.04071e-05
7.9015e-05
6.79619e-05
7.60802e-05
7.10154e-05
6.34496e-05
6.69344e-05
6.28493e-05
4.98486e-05
6.39708e-05
4.04315e-05
6.13606e-05
3.66775e-05
5.92328e-05
4.46327e-05
5.98247e-05
6.25671e-05
6.37026e-05
7.21911e-05
7.35699e-05
6.9219e-05
7.69511e-05
6.43757e-05
7.44334e-05
6.77883e-05
6.00499e-05
6.5623e-05
6.10112e-05
4.51014e-05
6.33616e-05
3.56807e-05
6.20288e-05
3.51763e-05
6.1861e-05
4.50778e-05
5.99796e-05
6.35317e-05
6.23083e-05
7.17971e-05
7.06324e-05
6.60254e-05
7.89552e-05
6.33153e-05
7.64346e-05
6.82527e-05
5.90115e-05
6.72145e-05
6.15645e-05
4.43627e-05
6.66272e-05
3.58961e-05
6.56733e-05
3.52897e-05
6.41443e-05
4.49227e-05
6.08448e-05
6.58617e-05
6.19075e-05
7.44468e-05
7.18241e-05
6.57165e-05
7.7622e-05
5.72163e-05
7.50043e-05
6.58809e-05
5.31203e-05
6.70337e-05
5.9817e-05
3.86475e-05
6.70335e-05
2.98105e-05
6.66399e-05
3.06847e-05
6.46303e-05
4.14603e-05
5.78421e-05
6.58356e-05
5.69212e-05
7.31091e-05
6.86323e-05
5.97105e-05
7.96054e-05
5.68556e-05
7.82702e-05
6.57427e-05
5.29008e-05
6.9524e-05
6.00562e-05
3.68524e-05
7.1244e-05
2.84242e-05
7.12966e-05
2.98013e-05
6.86462e-05
4.13249e-05
6.02437e-05
6.84435e-05
5.73862e-05
7.7157e-05
6.94055e-05
6.05444e-05
7.84649e-05
4.80423e-05
7.78415e-05
6.26191e-05
4.37182e-05
7.07141e-05
5.80263e-05
2.80403e-05
7.22847e-05
1.95072e-05
7.24007e-05
2.16823e-05
6.82007e-05
3.37668e-05
5.44788e-05
6.75241e-05
4.9136e-05
7.57406e-05
6.46035e-05
5.13404e-05
8.15701e-05
4.7287e-05
8.19654e-05
6.24837e-05
4.2552e-05
7.42228e-05
5.76807e-05
2.60111e-05
7.68512e-05
1.74441e-05
7.72818e-05
2.01496e-05
7.27975e-05
3.26911e-05
5.77727e-05
7.12725e-05
4.90095e-05
8.0569e-05
6.54662e-05
5.15506e-05
8.1006e-05
3.21195e-05
8.47167e-05
5.90074e-05
2.65936e-05
7.92824e-05
5.54927e-05
8.71628e-06
8.14303e-05
1.06271e-06
8.14478e-05
4.49022e-06
7.43319e-05
1.78937e-05
4.85212e-05
7.09694e-05
3.42613e-05
8.12263e-05
5.93439e-05
3.67492e-05
8.36017e-05
3.22159e-05
8.85675e-05
5.67084e-05
2.62633e-05
8.30114e-05
5.30182e-05
8.09011e-06
8.4617e-05
-1.27758e-07
8.46146e-05
3.60496e-06
7.74373e-05
1.70384e-05
5.2446e-05
7.31357e-05
3.44775e-05
8.54698e-05
5.79399e-05
3.75121e-05
8.71986e-05
4.38871e-06
0.000100601
5.0608e-05
-6.33769e-06
9.9431e-05
4.89086e-05
-2.69466e-05
9.77608e-05
-3.1906e-05
9.63898e-05
-2.70571e-05
8.52877e-05
-1.28704e-05
3.84955e-05
7.79469e-05
7.19879e-06
9.3875e-05
4.83728e-05
9.62725e-06
-0.0148868
-0.0142608
-0.0137458
-0.0133694
-0.0131541
-0.0131361
-0.0133231
-0.0136929
-0.0142318
-0.0148971
-0.0156449
-0.0163964
-0.0170595
-0.0175305
-0.0177396
-0.0176951
-0.0174128
-0.0169202
-0.0162829
-0.0155804
0.00143888
0.00154779
0.00151778
0.00140357
0.00125512
0.0011305
0.000953834
0.000721303
0.000410883
3.86402e-05
-0.000401095
-0.00085619
-0.0012362
-0.00144524
-0.00139339
-0.00103856
-0.000491459
0.000127291
0.000706384
0.00115919
-0.00309636
-0.00273762
-0.0024952
-0.00235414
-0.00236199
-0.00250113
-0.00274432
-0.00304726
-0.0034642
-0.00395723
-0.00456468