/*--------------------------------*- C++ -*----------------------------------*\
| =========                 |                                                 |
| \\      /  F ield         | OpenFOAM: The Open Source CFD Toolbox           |
|  \\    /   O peration     | Version:  2.4.0                                 |
|   \\  /    A nd           | Web:      www.OpenFOAM.org                      |
|    \\/     M anipulation  |                                                 |
\*---------------------------------------------------------------------------*/
FoamFile
{
    version     2.0;
    format      ascii;
    class       volScalarField;
    location    "120";
    object      epsilon;
}
// * * * * * * * * * * * * * * * * * * * * * * * * * * * * * * * * * * * * * //

dimensions      [0 2 -3 0 0 0 0];

internalField   nonuniform List<scalar> 
283312
(
2.14203e-05
1.90932e-05
1.83402e-05
1.93597e-05
2.18635e-05
2.52705e-05
2.89142e-05
3.22949e-05
3.51839e-05
3.75073e-05
3.92208e-05
4.02647e-05
4.05904e-05
4.02091e-05
3.91765e-05
3.75261e-05
3.52455e-05
3.22926e-05
2.87138e-05
2.48306e-05
2.08385e-05
2.42456e-05
2.86584e-05
3.30072e-05
3.65002e-05
3.88846e-05
4.03537e-05
4.12302e-05
4.17396e-05
4.19696e-05
4.18385e-05
4.11638e-05
3.98094e-05
3.77419e-05
3.497e-05
3.14383e-05
2.73449e-05
2.33626e-05
2.04668e-05
1.95108e-05
2.99958e-05
3.35475e-05
3.60893e-05
3.77225e-05
3.8691e-05
3.91974e-05
3.94334e-05
3.95452e-05
3.9635e-05
3.97737e-05
3.96471e-05
3.86359e-05
3.63288e-05
3.27537e-05
2.82662e-05
2.37613e-05
2.07679e-05
2.02661e-05
2.22747e-05
2.59425e-05
3.37089e-05
3.54974e-05
3.65091e-05
3.70046e-05
3.72111e-05
3.73093e-05
3.74142e-05
3.75569e-05
3.77341e-05
3.80893e-05
3.78202e-05
3.56592e-05
3.13438e-05
2.59681e-05
2.13598e-05
1.92598e-05
2.01313e-05
2.3252e-05
2.72659e-05
3.09504e-05
3.50433e-05
3.58014e-05
3.61288e-05
3.62618e-05
3.63434e-05
3.6424e-05
3.65426e-05
3.67049e-05
3.70286e-05
3.79765e-05
3.78886e-05
3.4912e-05
2.93882e-05
2.36825e-05
2.02562e-05
2.04054e-05
2.33539e-05
2.73746e-05
3.09886e-05
3.35363e-05
3.52919e-05
3.55755e-05
3.56695e-05
3.57005e-05
3.57405e-05
3.5808e-05
3.59293e-05
3.61004e-05
3.64474e-05
3.70943e-05
3.62926e-05
3.26855e-05
2.61766e-05
2.1044e-05
1.99629e-05
2.23765e-05
2.6423e-05
3.02798e-05
3.30119e-05
3.45599e-05
3.5223e-05
3.5307e-05
3.5336e-05
3.53654e-05
3.54197e-05
3.54937e-05
3.56093e-05
3.57707e-05
3.61058e-05
3.62209e-05
3.56005e-05
3.59669e-05
3.40447e-05
2.90942e-05
2.65277e-05
2.76275e-05
3.02818e-05
3.26889e-05
3.42076e-05
3.49398e-05
3.51102e-05
3.51342e-05
3.51456e-05
3.51642e-05
3.5203e-05
3.5263e-05
3.53583e-05
3.55025e-05
3.57597e-05
3.42381e-05
3.14418e-05
3.00126e-05
2.89175e-05
2.71532e-05
2.73525e-05
2.95389e-05
3.20193e-05
3.3757e-05
3.46506e-05
3.50005e-05
3.4999e-05
3.50095e-05
3.50228e-05
3.50465e-05
3.50833e-05
3.5137e-05
3.5213e-05
3.53397e-05
3.55445e-05
3.39047e-05
3.09364e-05
2.73812e-05
2.56557e-05
2.59841e-05
2.81749e-05
3.09696e-05
3.31202e-05
3.43026e-05
3.47968e-05
3.49563e-05
3.49346e-05
3.4942e-05
3.49522e-05
3.49694e-05
3.49959e-05
3.50379e-05
3.50968e-05
3.52054e-05
3.53743e-05
3.36267e-05
3.10071e-05
2.70827e-05
2.52941e-05
2.67476e-05
2.96825e-05
3.22838e-05
3.38577e-05
3.45782e-05
3.48394e-05
3.49152e-05
3.48909e-05
3.4898e-05
3.49082e-05
3.49241e-05
3.49458e-05
3.49793e-05
3.50236e-05
3.51117e-05
3.52413e-05
3.33857e-05
3.09456e-05
2.68735e-05
2.56642e-05
2.79215e-05
3.09426e-05
3.30948e-05
3.42128e-05
3.46755e-05
3.48334e-05
3.48784e-05
3.48663e-05
3.4872e-05
3.48796e-05
3.48913e-05
3.49073e-05
3.49324e-05
3.4967e-05
3.50365e-05
3.51519e-05
3.32462e-05
3.15019e-05
2.80105e-05
2.71252e-05
2.93118e-05
3.18822e-05
3.35619e-05
3.43858e-05
3.47156e-05
3.4826e-05
3.48573e-05
3.48494e-05
3.48546e-05
3.48612e-05
3.48708e-05
3.48834e-05
3.4902e-05
3.49278e-05
3.49779e-05
3.50711e-05
3.32887e-05
3.10885e-05
2.70512e-05
2.681e-05
2.94772e-05
3.20848e-05
3.36695e-05
3.44195e-05
3.47146e-05
3.48129e-05
3.48411e-05
3.4838e-05
3.48423e-05
3.48474e-05
3.48547e-05
3.48642e-05
3.48777e-05
3.48971e-05
3.49324e-05
3.50422e-05
3.36583e-05
3.24532e-05
2.87418e-05
2.80974e-05
3.01993e-05
3.24046e-05
3.37835e-05
3.44489e-05
3.47146e-05
3.48042e-05
3.48303e-05
3.48301e-05
3.48335e-05
3.48376e-05
3.48434e-05
3.48509e-05
3.48609e-05
3.48753e-05
3.48993e-05
3.49942e-05
3.32473e-05
3.06063e-05
2.71039e-05
2.76052e-05
3.02314e-05
3.25117e-05
3.38495e-05
3.4475e-05
3.47195e-05
3.48005e-05
3.48236e-05
3.48239e-05
3.48263e-05
3.48293e-05
3.48338e-05
3.48395e-05
3.48469e-05
3.48554e-05
3.48673e-05
3.48754e-05
3.16491e-05
2.5924e-05
2.37591e-05
2.60887e-05
2.97555e-05
3.24879e-05
3.39202e-05
3.45233e-05
3.47376e-05
3.48027e-05
3.48196e-05
3.48198e-05
3.48205e-05
3.48226e-05
3.48262e-05
3.48308e-05
3.48368e-05
3.48436e-05
3.48521e-05
3.4857e-05
3.45714e-05
3.43583e-05
3.44206e-05
3.45922e-05
3.47066e-05
3.47517e-05
3.47905e-05
3.48139e-05
3.48218e-05
3.4822e-05
3.48206e-05
3.48147e-05
3.4815e-05
3.48165e-05
3.48193e-05
3.4823e-05
3.48278e-05
3.4833e-05
3.48395e-05
3.48462e-05
3.48424e-05
3.48366e-05
3.48366e-05
3.4842e-05
3.4844e-05
3.48409e-05
3.48347e-05
3.48284e-05
3.48228e-05
3.48185e-05
3.48158e-05
3.48101e-05
3.48101e-05
3.48111e-05
3.48133e-05
3.48163e-05
3.48203e-05
3.48245e-05
3.48293e-05
3.48329e-05
3.4836e-05
3.48348e-05
3.48345e-05
3.48369e-05
3.48366e-05
3.48338e-05
3.48288e-05
3.48233e-05
3.48182e-05
3.48142e-05
3.48115e-05
3.48057e-05
3.48054e-05
3.48061e-05
3.48078e-05
3.48103e-05
3.48136e-05
3.48172e-05
3.48215e-05
3.48251e-05
3.48279e-05
3.48276e-05
3.4827e-05
3.48277e-05
3.48272e-05
3.48252e-05
3.48213e-05
3.4817e-05
3.48128e-05
3.48094e-05
3.4807e-05
3.48016e-05
3.48012e-05
3.48016e-05
3.48029e-05
3.48049e-05
3.48076e-05
3.48107e-05
3.48141e-05
3.48168e-05
3.48194e-05
3.48198e-05
3.48202e-05
3.48213e-05
3.48209e-05
3.48191e-05
3.48159e-05
3.48121e-05
3.48085e-05
3.48053e-05
3.4803e-05
3.47977e-05
3.47972e-05
3.47974e-05
3.47983e-05
3.48e-05
3.48024e-05
3.4805e-05
3.48081e-05
3.48107e-05
3.48131e-05
3.48138e-05
3.48141e-05
3.48146e-05
3.48142e-05
3.48127e-05
3.48101e-05
3.4807e-05
3.48039e-05
3.48012e-05
3.47991e-05
3.47942e-05
3.47935e-05
3.47935e-05
3.47942e-05
3.47955e-05
3.47975e-05
3.47998e-05
3.48024e-05
3.48046e-05
3.48068e-05
3.48077e-05
3.48085e-05
3.48093e-05
3.4809e-05
3.48078e-05
3.48055e-05
3.48028e-05
3.48e-05
3.47976e-05
3.47956e-05
3.47908e-05
3.47901e-05
3.47899e-05
3.47905e-05
3.47915e-05
3.47932e-05
3.47952e-05
3.47975e-05
3.47996e-05
3.48017e-05
3.48027e-05
3.48034e-05
3.48039e-05
3.48037e-05
3.48027e-05
3.48009e-05
3.47986e-05
3.47962e-05
3.4794e-05
3.47921e-05
3.47877e-05
3.47869e-05
3.47867e-05
3.4787e-05
3.47879e-05
3.47893e-05
3.4791e-05
3.47931e-05
3.47949e-05
3.47968e-05
3.47979e-05
3.47988e-05
3.47994e-05
3.47993e-05
3.47985e-05
3.47969e-05
3.47949e-05
3.47928e-05
3.47907e-05
3.4789e-05
3.47849e-05
3.47841e-05
3.47837e-05
3.4784e-05
3.47846e-05
3.47858e-05
3.47873e-05
3.47892e-05
3.47909e-05
3.47926e-05
3.47937e-05
3.47946e-05
3.47951e-05
3.47951e-05
3.47944e-05
3.47931e-05
3.47914e-05
3.47895e-05
3.47877e-05
3.47861e-05
3.47822e-05
3.47814e-05
3.47811e-05
3.47811e-05
3.47817e-05
3.47827e-05
3.4784e-05
3.47856e-05
3.47871e-05
3.47887e-05
3.47899e-05
3.47908e-05
3.47914e-05
3.47914e-05
3.47909e-05
3.47898e-05
3.47883e-05
3.47866e-05
3.47849e-05
3.47834e-05
3.47799e-05
3.47791e-05
3.47786e-05
3.47786e-05
3.4779e-05
3.47799e-05
3.4781e-05
3.47825e-05
3.47839e-05
3.47854e-05
3.47865e-05
3.47874e-05
3.47879e-05
3.4788e-05
3.47876e-05
3.47867e-05
3.47854e-05
3.47839e-05
3.47824e-05
3.4781e-05
3.47777e-05
3.47769e-05
3.47764e-05
3.47764e-05
3.47767e-05
3.47774e-05
3.47784e-05
3.47797e-05
3.4781e-05
3.47824e-05
3.47834e-05
3.47843e-05
3.47849e-05
3.47851e-05
3.47848e-05
3.4784e-05
3.47828e-05
3.47815e-05
3.47801e-05
3.47788e-05
3.47758e-05
3.4775e-05
3.47745e-05
3.47743e-05
3.47746e-05
3.47752e-05
3.4776e-05
3.47772e-05
3.47784e-05
3.47797e-05
3.47807e-05
3.47816e-05
3.47822e-05
3.47824e-05
3.47822e-05
3.47815e-05
3.47805e-05
3.47793e-05
3.4778e-05
3.47768e-05
3.4774e-05
3.47733e-05
3.47727e-05
3.47725e-05
3.47727e-05
3.47732e-05
3.4774e-05
3.4775e-05
3.47761e-05
3.47774e-05
3.47784e-05
3.47792e-05
3.47798e-05
3.47801e-05
3.47799e-05
3.47793e-05
3.47784e-05
3.47773e-05
3.47762e-05
3.4775e-05
3.47725e-05
3.47718e-05
3.47712e-05
3.4771e-05
3.47711e-05
3.47715e-05
3.47722e-05
3.47732e-05
3.47742e-05
3.47753e-05
3.47763e-05
3.47771e-05
3.47777e-05
3.4778e-05
3.47779e-05
3.47774e-05
3.47766e-05
3.47756e-05
3.47745e-05
3.47735e-05
3.47712e-05
3.47704e-05
3.47699e-05
3.47696e-05
3.47696e-05
3.477e-05
3.47706e-05
3.47715e-05
3.47725e-05
3.47735e-05
3.47745e-05
3.47753e-05
3.47759e-05
3.47762e-05
3.47762e-05
3.47757e-05
3.4775e-05
3.47741e-05
3.47731e-05
3.47721e-05
3.47701e-05
3.47693e-05
3.47688e-05
3.47684e-05
3.47684e-05
3.47688e-05
3.47693e-05
3.47701e-05
3.4771e-05
3.47721e-05
3.4773e-05
3.47738e-05
3.47744e-05
3.47747e-05
3.47747e-05
3.47743e-05
3.47737e-05
3.47729e-05
3.47719e-05
3.4771e-05
3.4769e-05
3.47683e-05
3.47678e-05
3.47674e-05
3.47674e-05
3.47677e-05
3.47681e-05
3.47689e-05
3.47698e-05
3.47708e-05
3.47716e-05
3.47724e-05
3.4773e-05
3.47734e-05
3.47734e-05
3.47731e-05
3.47725e-05
3.47717e-05
3.47708e-05
3.47699e-05
3.47683e-05
3.47676e-05
3.4767e-05
3.47666e-05
3.47666e-05
3.47668e-05
3.47672e-05
3.4768e-05
3.47688e-05
3.47697e-05
3.47706e-05
3.47714e-05
3.4772e-05
3.47723e-05
3.47724e-05
3.47722e-05
3.47716e-05
3.47709e-05
3.477e-05
3.47692e-05
3.47676e-05
3.47669e-05
3.47663e-05
3.47659e-05
3.47659e-05
3.47661e-05
3.47664e-05
3.47671e-05
3.47679e-05
3.47689e-05
3.47697e-05
3.47705e-05
3.47711e-05
3.47714e-05
3.47716e-05
3.47713e-05
3.47708e-05
3.47701e-05
3.47692e-05
3.47684e-05
3.47672e-05
3.47665e-05
3.47659e-05
3.47655e-05
3.47654e-05
3.47656e-05
3.47659e-05
3.47666e-05
3.47674e-05
3.47683e-05
3.47691e-05
3.47699e-05
3.47705e-05
3.47709e-05
3.47711e-05
3.47708e-05
3.47704e-05
3.47697e-05
3.47688e-05
3.4768e-05
3.4767e-05
3.47662e-05
3.47657e-05
3.47652e-05
3.47651e-05
3.47653e-05
3.47656e-05
3.47663e-05
3.4767e-05
3.4768e-05
3.47687e-05
3.47696e-05
3.47701e-05
3.47705e-05
3.47707e-05
3.47704e-05
3.477e-05
3.47694e-05
3.47685e-05
3.47678e-05
3.47992e-05
3.48047e-05
3.47973e-05
3.47957e-05
3.48041e-05
3.47976e-05
3.47964e-05
3.48077e-05
3.48e-05
3.4811e-05
3.48021e-05
3.48136e-05
3.48037e-05
3.48145e-05
3.48171e-05
3.48039e-05
3.4812e-05
3.48019e-05
3.47993e-05
3.48073e-05
2.11334e-05
1.90096e-05
1.8626e-05
2.00698e-05
2.29493e-05
2.66282e-05
3.04101e-05
3.3846e-05
3.6748e-05
3.90589e-05
4.0734e-05
4.17071e-05
4.19264e-05
4.14057e-05
4.02084e-05
3.83576e-05
3.58296e-05
3.25826e-05
2.87054e-05
2.46103e-05
2.19071e-05
2.57179e-05
3.03416e-05
3.46953e-05
3.80727e-05
4.03192e-05
4.16998e-05
4.25307e-05
4.30188e-05
4.32417e-05
4.31063e-05
4.2409e-05
4.09883e-05
3.87893e-05
3.58037e-05
3.19938e-05
2.76381e-05
2.35387e-05
2.07611e-05
2.01473e-05
3.15393e-05
3.5033e-05
3.74844e-05
3.90388e-05
3.995e-05
4.04171e-05
4.0636e-05
4.07459e-05
4.08546e-05
4.10752e-05
4.10812e-05
4.01581e-05
3.78048e-05
3.40282e-05
2.92411e-05
2.45227e-05
2.15539e-05
2.12872e-05
2.35903e-05
2.74566e-05
3.50999e-05
3.68131e-05
3.77642e-05
3.82178e-05
3.84029e-05
3.84981e-05
3.86079e-05
3.87592e-05
3.89476e-05
3.94272e-05
3.93373e-05
3.71925e-05
3.26554e-05
2.69794e-05
2.22387e-05
2.02434e-05
2.13469e-05
2.46702e-05
2.87651e-05
3.24225e-05
3.63223e-05
3.70253e-05
3.73227e-05
3.74431e-05
3.75231e-05
3.76059e-05
3.77307e-05
3.7901e-05
3.82503e-05
3.95115e-05
3.98301e-05
3.69504e-05
3.11846e-05
2.51728e-05
2.1617e-05
2.18238e-05
2.48632e-05
2.88974e-05
3.24466e-05
3.49013e-05
3.65043e-05
3.67594e-05
3.6843e-05
3.68722e-05
3.69157e-05
3.69875e-05
3.71151e-05
3.7293e-05
3.76613e-05
3.86418e-05
3.82767e-05
3.4762e-05
2.78382e-05
2.2471e-05
2.14091e-05
2.39148e-05
2.79811e-05
3.17627e-05
3.43821e-05
3.58344e-05
3.64051e-05
3.64788e-05
3.6507e-05
3.65383e-05
3.65955e-05
3.66724e-05
3.67924e-05
3.69594e-05
3.73136e-05
3.77352e-05
3.7758e-05
3.92789e-05
3.77826e-05
3.21263e-05
2.88814e-05
2.95747e-05
3.19476e-05
3.41365e-05
3.55072e-05
3.61586e-05
3.62805e-05
3.63023e-05
3.6315e-05
3.63357e-05
3.6377e-05
3.64398e-05
3.65386e-05
3.66877e-05
3.69554e-05
3.53881e-05
3.26923e-05
3.19444e-05
3.13863e-05
2.95413e-05
2.9447e-05
3.13348e-05
3.35509e-05
3.5097e-05
3.58833e-05
3.6187e-05
3.61677e-05
3.61787e-05
3.61933e-05
3.62185e-05
3.6257e-05
3.63126e-05
3.6391e-05
3.65221e-05
3.67346e-05
3.50456e-05
3.20685e-05
2.86326e-05
2.72166e-05
2.77043e-05
2.98545e-05
3.24935e-05
3.44787e-05
3.55496e-05
3.599e-05
3.61303e-05
3.61033e-05
3.61111e-05
3.61222e-05
3.61407e-05
3.61685e-05
3.62123e-05
3.6273e-05
3.63855e-05
3.656e-05
3.47765e-05
3.22025e-05
2.82175e-05
2.65415e-05
2.8151e-05
3.11069e-05
3.36285e-05
3.51143e-05
3.57805e-05
3.60178e-05
3.60857e-05
3.606e-05
3.60675e-05
3.60783e-05
3.60951e-05
3.61178e-05
3.61525e-05
3.61981e-05
3.62894e-05
3.64227e-05
3.45423e-05
3.21778e-05
2.79918e-05
2.68486e-05
2.923e-05
3.22665e-05
3.43661e-05
3.54315e-05
3.58635e-05
3.6008e-05
3.60484e-05
3.60352e-05
3.60412e-05
3.60494e-05
3.60619e-05
3.60786e-05
3.61048e-05
3.61404e-05
3.62124e-05
3.63313e-05
3.441e-05
3.28379e-05
2.92414e-05
2.83626e-05
3.06137e-05
3.31741e-05
3.48067e-05
3.55907e-05
3.58982e-05
3.59989e-05
3.60269e-05
3.60184e-05
3.60237e-05
3.60308e-05
3.6041e-05
3.60542e-05
3.60735e-05
3.61003e-05
3.6152e-05
3.62481e-05
3.44708e-05
3.23949e-05
2.8226e-05
2.80309e-05
3.07646e-05
3.33611e-05
3.4904e-05
3.56195e-05
3.58954e-05
3.59854e-05
3.60107e-05
3.60069e-05
3.60113e-05
3.60167e-05
3.60245e-05
3.60345e-05
3.60487e-05
3.60687e-05
3.61051e-05
3.62194e-05
3.48832e-05
3.38925e-05
3.00242e-05
2.93609e-05
3.1492e-05
3.36756e-05
3.50132e-05
3.56465e-05
3.58945e-05
3.59764e-05
3.59998e-05
3.59989e-05
3.60024e-05
3.60067e-05
3.60129e-05
3.60208e-05
3.60312e-05
3.60462e-05
3.6071e-05
3.617e-05
3.4442e-05
3.18906e-05
2.82887e-05
2.88475e-05
3.15172e-05
3.37768e-05
3.5075e-05
3.56702e-05
3.58983e-05
3.59723e-05
3.5993e-05
3.59925e-05
3.59949e-05
3.59982e-05
3.6003e-05
3.60091e-05
3.60168e-05
3.60256e-05
3.6038e-05
3.60459e-05
3.26605e-05
2.67297e-05
2.46632e-05
2.72244e-05
3.10115e-05
3.37438e-05
3.51399e-05
3.57146e-05
3.59143e-05
3.59736e-05
3.59886e-05
3.59881e-05
3.5989e-05
3.59913e-05
3.59951e-05
3.6e-05
3.60063e-05
3.60133e-05
3.60221e-05
3.60271e-05
3.57311e-05
3.55209e-05
3.55939e-05
3.57696e-05
3.58813e-05
3.59252e-05
3.59626e-05
3.59841e-05
3.59906e-05
3.59904e-05
3.59888e-05
3.59828e-05
3.59833e-05
3.5985e-05
3.5988e-05
3.59919e-05
3.5997e-05
3.60024e-05
3.60091e-05
3.6016e-05
3.6012e-05
3.60061e-05
3.60062e-05
3.60117e-05
3.60133e-05
3.60097e-05
3.60032e-05
3.59966e-05
3.59908e-05
3.59865e-05
3.59839e-05
3.59782e-05
3.59782e-05
3.59794e-05
3.59818e-05
3.5985e-05
3.59891e-05
3.59936e-05
3.59985e-05
3.60021e-05
3.60053e-05
3.60038e-05
3.60036e-05
3.6006e-05
3.60055e-05
3.60024e-05
3.59971e-05
3.59913e-05
3.59861e-05
3.59821e-05
3.59794e-05
3.59736e-05
3.59734e-05
3.59742e-05
3.59761e-05
3.59787e-05
3.59822e-05
3.5986e-05
3.59904e-05
3.5994e-05
3.59969e-05
3.59964e-05
3.59958e-05
3.59965e-05
3.59959e-05
3.59936e-05
3.59895e-05
3.59849e-05
3.59807e-05
3.59772e-05
3.59748e-05
3.59694e-05
3.5969e-05
3.59695e-05
3.5971e-05
3.59731e-05
3.5976e-05
3.59792e-05
3.59827e-05
3.59855e-05
3.59881e-05
3.59883e-05
3.59888e-05
3.59899e-05
3.59894e-05
3.59874e-05
3.5984e-05
3.598e-05
3.59762e-05
3.59731e-05
3.59708e-05
3.59654e-05
3.59649e-05
3.59652e-05
3.59663e-05
3.5968e-05
3.59705e-05
3.59733e-05
3.59765e-05
3.59791e-05
3.59816e-05
3.59822e-05
3.59825e-05
3.59829e-05
3.59824e-05
3.59808e-05
3.59781e-05
3.59748e-05
3.59716e-05
3.59688e-05
3.59667e-05
3.59617e-05
3.59611e-05
3.59612e-05
3.5962e-05
3.59634e-05
3.59655e-05
3.59678e-05
3.59706e-05
3.59728e-05
3.5975e-05
3.59759e-05
3.59767e-05
3.59774e-05
3.59771e-05
3.59757e-05
3.59733e-05
3.59705e-05
3.59676e-05
3.59651e-05
3.59631e-05
3.59583e-05
3.59576e-05
3.59575e-05
3.59581e-05
3.59593e-05
3.5961e-05
3.59631e-05
3.59655e-05
3.59677e-05
3.59698e-05
3.59707e-05
3.59714e-05
3.59719e-05
3.59716e-05
3.59705e-05
3.59685e-05
3.59662e-05
3.59637e-05
3.59614e-05
3.59596e-05
3.59551e-05
3.59543e-05
3.59541e-05
3.59545e-05
3.59555e-05
3.5957e-05
3.59587e-05
3.59609e-05
3.59628e-05
3.59647e-05
3.59658e-05
3.59667e-05
3.59673e-05
3.59671e-05
3.59662e-05
3.59645e-05
3.59624e-05
3.59602e-05
3.59581e-05
3.59564e-05
3.59521e-05
3.59514e-05
3.59511e-05
3.59513e-05
3.59521e-05
3.59534e-05
3.59549e-05
3.59568e-05
3.59586e-05
3.59603e-05
3.59614e-05
3.59623e-05
3.59628e-05
3.59627e-05
3.5962e-05
3.59606e-05
3.59588e-05
3.59568e-05
3.5955e-05
3.59534e-05
3.59494e-05
3.59486e-05
3.59483e-05
3.59484e-05
3.5949e-05
3.59501e-05
3.59514e-05
3.59531e-05
3.59547e-05
3.59564e-05
3.59575e-05
3.59584e-05
3.5959e-05
3.5959e-05
3.59584e-05
3.59572e-05
3.59556e-05
3.59538e-05
3.59521e-05
3.59506e-05
3.5947e-05
3.59462e-05
3.59458e-05
3.59458e-05
3.59463e-05
3.59472e-05
3.59484e-05
3.59499e-05
3.59513e-05
3.59529e-05
3.5954e-05
3.59549e-05
3.59554e-05
3.59555e-05
3.5955e-05
3.5954e-05
3.59526e-05
3.59511e-05
3.59495e-05
3.59481e-05
3.59448e-05
3.5944e-05
3.59435e-05
3.59435e-05
3.59438e-05
3.59446e-05
3.59456e-05
3.5947e-05
3.59483e-05
3.59497e-05
3.59508e-05
3.59517e-05
3.59523e-05
3.59524e-05
3.5952e-05
3.59512e-05
3.595e-05
3.59486e-05
3.59472e-05
3.59459e-05
3.59428e-05
3.5942e-05
3.59415e-05
3.59414e-05
3.59417e-05
3.59423e-05
3.59432e-05
3.59445e-05
3.59457e-05
3.5947e-05
3.5948e-05
3.59489e-05
3.59495e-05
3.59497e-05
3.59494e-05
3.59486e-05
3.59476e-05
3.59463e-05
3.5945e-05
3.59438e-05
3.5941e-05
3.59402e-05
3.59397e-05
3.59395e-05
3.59397e-05
3.59403e-05
3.59411e-05
3.59422e-05
3.59433e-05
3.59446e-05
3.59456e-05
3.59465e-05
3.5947e-05
3.59472e-05
3.5947e-05
3.59464e-05
3.59455e-05
3.59443e-05
3.59431e-05
3.5942e-05
3.59394e-05
3.59387e-05
3.59381e-05
3.59379e-05
3.5938e-05
3.59385e-05
3.59392e-05
3.59402e-05
3.59413e-05
3.59425e-05
3.59434e-05
3.59443e-05
3.59449e-05
3.59451e-05
3.5945e-05
3.59444e-05
3.59436e-05
3.59426e-05
3.59415e-05
3.59404e-05
3.5938e-05
3.59373e-05
3.59367e-05
3.59365e-05
3.59366e-05
3.5937e-05
3.59376e-05
3.59385e-05
3.59395e-05
3.59406e-05
3.59415e-05
3.59424e-05
3.5943e-05
3.59433e-05
3.59432e-05
3.59427e-05
3.5942e-05
3.5941e-05
3.594e-05
3.5939e-05
3.59369e-05
3.59361e-05
3.59356e-05
3.59353e-05
3.59353e-05
3.59357e-05
3.59362e-05
3.59371e-05
3.5938e-05
3.59391e-05
3.594e-05
3.59408e-05
3.59414e-05
3.59417e-05
3.59417e-05
3.59413e-05
3.59406e-05
3.59397e-05
3.59387e-05
3.59378e-05
3.59358e-05
3.59351e-05
3.59346e-05
3.59342e-05
3.59342e-05
3.59345e-05
3.5935e-05
3.59358e-05
3.59367e-05
3.59377e-05
3.59386e-05
3.59394e-05
3.594e-05
3.59403e-05
3.59404e-05
3.594e-05
3.59394e-05
3.59386e-05
3.59376e-05
3.59367e-05
3.59351e-05
3.59344e-05
3.59338e-05
3.59334e-05
3.59334e-05
3.59336e-05
3.5934e-05
3.59349e-05
3.59357e-05
3.59367e-05
3.59375e-05
3.59384e-05
3.59389e-05
3.59393e-05
3.59394e-05
3.5939e-05
3.59385e-05
3.59377e-05
3.59368e-05
3.59359e-05
3.59344e-05
3.59336e-05
3.59331e-05
3.59327e-05
3.59326e-05
3.59329e-05
3.59332e-05
3.5934e-05
3.59348e-05
3.59358e-05
3.59366e-05
3.59374e-05
3.5938e-05
3.59384e-05
3.59385e-05
3.59382e-05
3.59377e-05
3.59369e-05
3.5936e-05
3.59352e-05
3.5934e-05
3.59333e-05
3.59327e-05
3.59322e-05
3.59322e-05
3.59324e-05
3.59327e-05
3.59335e-05
3.59342e-05
3.59352e-05
3.5936e-05
3.59369e-05
3.59374e-05
3.59378e-05
3.59379e-05
3.59376e-05
3.59372e-05
3.59365e-05
3.59356e-05
3.59348e-05
3.59337e-05
3.5933e-05
3.59324e-05
3.5932e-05
3.59319e-05
3.59321e-05
3.59324e-05
3.59331e-05
3.59339e-05
3.59348e-05
3.59356e-05
3.59365e-05
3.5937e-05
3.59374e-05
3.59376e-05
3.59373e-05
3.59368e-05
3.59361e-05
3.59353e-05
3.59345e-05
3.59657e-05
3.59707e-05
3.59638e-05
3.59624e-05
3.59703e-05
3.59641e-05
3.59632e-05
3.59739e-05
3.59667e-05
3.59773e-05
3.59687e-05
3.59798e-05
3.59703e-05
3.59807e-05
3.5983e-05
3.59704e-05
3.5978e-05
3.59684e-05
3.5966e-05
3.59734e-05
2.08984e-05
1.90397e-05
1.90722e-05
2.09602e-05
2.42118e-05
2.81327e-05
3.20298e-05
3.55055e-05
3.84084e-05
4.06953e-05
4.23203e-05
4.32106e-05
4.33111e-05
4.26383e-05
4.12596e-05
3.91896e-05
3.63938e-05
3.2837e-05
2.86634e-05
2.43877e-05
2.31412e-05
2.73329e-05
3.21235e-05
3.6447e-05
3.96948e-05
4.18128e-05
4.3111e-05
4.38976e-05
4.43641e-05
4.45816e-05
4.44477e-05
4.37331e-05
4.2244e-05
3.98984e-05
3.66743e-05
3.25615e-05
2.79425e-05
2.37589e-05
2.11536e-05
2.09308e-05
3.31549e-05
3.65776e-05
3.89355e-05
4.04112e-05
4.12645e-05
4.16937e-05
4.18969e-05
4.20062e-05
4.2139e-05
4.24642e-05
4.26428e-05
4.18427e-05
3.94514e-05
3.54524e-05
3.03308e-05
2.53895e-05
2.24598e-05
2.244e-05
2.5028e-05
2.9066e-05
3.65516e-05
3.81858e-05
3.9075e-05
3.94871e-05
3.96528e-05
3.97456e-05
3.98611e-05
4.00219e-05
4.02226e-05
4.08583e-05
4.09964e-05
3.88842e-05
3.40992e-05
2.80928e-05
2.322e-05
2.13401e-05
2.26762e-05
2.61875e-05
3.03442e-05
3.3961e-05
3.76573e-05
3.83047e-05
3.8573e-05
3.86818e-05
3.87613e-05
3.88467e-05
3.89782e-05
3.9157e-05
3.95348e-05
4.1186e-05
4.20145e-05
3.92693e-05
3.32332e-05
2.6862e-05
2.31312e-05
2.33644e-05
2.64704e-05
3.04984e-05
3.39696e-05
3.63242e-05
3.77732e-05
3.80007e-05
3.80748e-05
3.81027e-05
3.81501e-05
3.82262e-05
3.83602e-05
3.85452e-05
3.89377e-05
4.03386e-05
4.05262e-05
3.71256e-05
2.97078e-05
2.40616e-05
2.29895e-05
2.55606e-05
2.96224e-05
3.33117e-05
3.58101e-05
3.71644e-05
3.76449e-05
3.7709e-05
3.77366e-05
3.777e-05
3.78301e-05
3.79099e-05
3.80346e-05
3.82073e-05
3.85831e-05
3.94015e-05
4.02528e-05
4.32092e-05
4.21707e-05
3.55854e-05
3.14752e-05
3.1656e-05
3.36951e-05
3.56447e-05
3.68625e-05
3.74337e-05
3.75095e-05
3.75292e-05
3.75432e-05
3.7566e-05
3.761e-05
3.76755e-05
3.77779e-05
3.79323e-05
3.82113e-05
3.66075e-05
3.40642e-05
3.41638e-05
3.42175e-05
3.2213e-05
3.1715e-05
3.32305e-05
3.5148e-05
3.64931e-05
3.71722e-05
3.74311e-05
3.73951e-05
3.74064e-05
3.74224e-05
3.74492e-05
3.74893e-05
3.7547e-05
3.76279e-05
3.77635e-05
3.79841e-05
3.62525e-05
3.32846e-05
3.00134e-05
2.89481e-05
2.95727e-05
3.16356e-05
3.40864e-05
3.58943e-05
3.68527e-05
3.72407e-05
3.73625e-05
3.73304e-05
3.73387e-05
3.73508e-05
3.73706e-05
3.73998e-05
3.74454e-05
3.7508e-05
3.76245e-05
3.78049e-05
3.59951e-05
3.34899e-05
2.94462e-05
2.78923e-05
2.96481e-05
3.26046e-05
3.50338e-05
3.6428e-05
3.70401e-05
3.72542e-05
3.73144e-05
3.72874e-05
3.72953e-05
3.7307e-05
3.73247e-05
3.73483e-05
3.73845e-05
3.74314e-05
3.75259e-05
3.76631e-05
3.57702e-05
3.35063e-05
2.91969e-05
2.81193e-05
3.06174e-05
3.3657e-05
3.5697e-05
3.67078e-05
3.71091e-05
3.72406e-05
3.72767e-05
3.72625e-05
3.72688e-05
3.72776e-05
3.72909e-05
3.73085e-05
3.73358e-05
3.73725e-05
3.7447e-05
3.75694e-05
3.56468e-05
3.42833e-05
3.0566e-05
2.96849e-05
3.19907e-05
3.45304e-05
3.61105e-05
3.68532e-05
3.71385e-05
3.72298e-05
3.72547e-05
3.72457e-05
3.72513e-05
3.72589e-05
3.72697e-05
3.72835e-05
3.73036e-05
3.73313e-05
3.73847e-05
3.74839e-05
3.57284e-05
3.38067e-05
2.949e-05
2.93343e-05
3.21253e-05
3.47013e-05
3.61975e-05
3.68772e-05
3.7134e-05
3.72159e-05
3.72385e-05
3.72341e-05
3.72387e-05
3.72445e-05
3.72528e-05
3.72633e-05
3.72781e-05
3.72989e-05
3.73365e-05
3.74553e-05
3.61887e-05
3.54507e-05
3.14019e-05
3.07077e-05
3.28574e-05
3.50102e-05
3.6302e-05
3.69018e-05
3.71321e-05
3.72066e-05
3.72276e-05
3.7226e-05
3.72296e-05
3.72343e-05
3.72409e-05
3.72491e-05
3.72601e-05
3.72756e-05
3.73012e-05
3.74046e-05
3.57146e-05
3.32783e-05
2.9562e-05
3.01713e-05
3.28746e-05
3.5105e-05
3.63594e-05
3.69232e-05
3.7135e-05
3.72022e-05
3.72206e-05
3.72194e-05
3.72219e-05
3.72255e-05
3.72306e-05
3.72371e-05
3.72451e-05
3.72544e-05
3.72672e-05
3.72748e-05
3.37269e-05
2.75866e-05
2.56332e-05
2.84348e-05
3.23368e-05
3.50615e-05
3.64179e-05
3.69636e-05
3.71489e-05
3.72026e-05
3.72159e-05
3.72147e-05
3.72158e-05
3.72184e-05
3.72224e-05
3.72276e-05
3.72342e-05
3.72415e-05
3.72506e-05
3.72556e-05
3.69495e-05
3.6743e-05
3.68268e-05
3.70059e-05
3.71145e-05
3.7157e-05
3.71929e-05
3.72125e-05
3.72178e-05
3.7217e-05
3.72153e-05
3.72093e-05
3.72099e-05
3.72118e-05
3.7215e-05
3.72192e-05
3.72245e-05
3.72302e-05
3.72372e-05
3.72442e-05
3.72399e-05
3.72339e-05
3.72341e-05
3.72397e-05
3.7241e-05
3.7237e-05
3.723e-05
3.72231e-05
3.72171e-05
3.72128e-05
3.72102e-05
3.72045e-05
3.72047e-05
3.72061e-05
3.72086e-05
3.7212e-05
3.72164e-05
3.7221e-05
3.72261e-05
3.72298e-05
3.7233e-05
3.72312e-05
3.7231e-05
3.72335e-05
3.72328e-05
3.72293e-05
3.72237e-05
3.72177e-05
3.72124e-05
3.72083e-05
3.72057e-05
3.71998e-05
3.71997e-05
3.72007e-05
3.72027e-05
3.72055e-05
3.72092e-05
3.72132e-05
3.72177e-05
3.72214e-05
3.72242e-05
3.72236e-05
3.72229e-05
3.72236e-05
3.72228e-05
3.72203e-05
3.7216e-05
3.72112e-05
3.72068e-05
3.72034e-05
3.7201e-05
3.71955e-05
3.71952e-05
3.71958e-05
3.71974e-05
3.71997e-05
3.72028e-05
3.7206e-05
3.72097e-05
3.72125e-05
3.72151e-05
3.72153e-05
3.72157e-05
3.72168e-05
3.72162e-05
3.7214e-05
3.72103e-05
3.72062e-05
3.72023e-05
3.71991e-05
3.71968e-05
3.71914e-05
3.71909e-05
3.71913e-05
3.71925e-05
3.71944e-05
3.7197e-05
3.71999e-05
3.72032e-05
3.72059e-05
3.72084e-05
3.72089e-05
3.72092e-05
3.72096e-05
3.72089e-05
3.72072e-05
3.72043e-05
3.72009e-05
3.71976e-05
3.71948e-05
3.71927e-05
3.71876e-05
3.7187e-05
3.71872e-05
3.71881e-05
3.71896e-05
3.71918e-05
3.71942e-05
3.71971e-05
3.71994e-05
3.72016e-05
3.72025e-05
3.72032e-05
3.72039e-05
3.72035e-05
3.7202e-05
3.71994e-05
3.71965e-05
3.71935e-05
3.71909e-05
3.71889e-05
3.7184e-05
3.71834e-05
3.71833e-05
3.7184e-05
3.71853e-05
3.71872e-05
3.71893e-05
3.71919e-05
3.7194e-05
3.71961e-05
3.71971e-05
3.71978e-05
3.71982e-05
3.71978e-05
3.71966e-05
3.71945e-05
3.7192e-05
3.71895e-05
3.71872e-05
3.71853e-05
3.71807e-05
3.718e-05
3.71799e-05
3.71804e-05
3.71814e-05
3.7183e-05
3.71848e-05
3.7187e-05
3.71889e-05
3.71909e-05
3.7192e-05
3.71928e-05
3.71934e-05
3.71932e-05
3.71921e-05
3.71904e-05
3.71882e-05
3.71859e-05
3.71838e-05
3.7182e-05
3.71777e-05
3.71769e-05
3.71767e-05
3.7177e-05
3.71778e-05
3.71792e-05
3.71808e-05
3.71828e-05
3.71846e-05
3.71864e-05
3.71875e-05
3.71883e-05
3.71888e-05
3.71887e-05
3.71878e-05
3.71863e-05
3.71845e-05
3.71824e-05
3.71805e-05
3.71789e-05
3.71749e-05
3.71741e-05
3.71738e-05
3.7174e-05
3.71747e-05
3.71758e-05
3.71772e-05
3.7179e-05
3.71806e-05
3.71823e-05
3.71834e-05
3.71843e-05
3.71848e-05
3.71848e-05
3.71841e-05
3.71828e-05
3.71812e-05
3.71794e-05
3.71776e-05
3.71761e-05
3.71724e-05
3.71716e-05
3.71712e-05
3.71713e-05
3.71718e-05
3.71728e-05
3.7174e-05
3.71756e-05
3.71771e-05
3.71787e-05
3.71797e-05
3.71806e-05
3.71812e-05
3.71812e-05
3.71806e-05
3.71796e-05
3.71781e-05
3.71765e-05
3.71749e-05
3.71735e-05
3.71701e-05
3.71693e-05
3.71689e-05
3.71689e-05
3.71693e-05
3.71701e-05
3.71712e-05
3.71726e-05
3.7174e-05
3.71754e-05
3.71765e-05
3.71774e-05
3.71779e-05
3.7178e-05
3.71776e-05
3.71767e-05
3.71754e-05
3.7174e-05
3.71725e-05
3.71712e-05
3.7168e-05
3.71673e-05
3.71668e-05
3.71667e-05
3.7167e-05
3.71677e-05
3.71687e-05
3.717e-05
3.71712e-05
3.71726e-05
3.71736e-05
3.71745e-05
3.71751e-05
3.71752e-05
3.71749e-05
3.71741e-05
3.7173e-05
3.71717e-05
3.71703e-05
3.71691e-05
3.71662e-05
3.71654e-05
3.71649e-05
3.71648e-05
3.7165e-05
3.71656e-05
3.71664e-05
3.71676e-05
3.71688e-05
3.71701e-05
3.71711e-05
3.7172e-05
3.71725e-05
3.71727e-05
3.71725e-05
3.71718e-05
3.71708e-05
3.71696e-05
3.71684e-05
3.71672e-05
3.71646e-05
3.71638e-05
3.71633e-05
3.71631e-05
3.71633e-05
3.71638e-05
3.71645e-05
3.71656e-05
3.71667e-05
3.71679e-05
3.71688e-05
3.71697e-05
3.71703e-05
3.71705e-05
3.71703e-05
3.71698e-05
3.71689e-05
3.71678e-05
3.71666e-05
3.71656e-05
3.71631e-05
3.71624e-05
3.71619e-05
3.71616e-05
3.71617e-05
3.71622e-05
3.71628e-05
3.71638e-05
3.71648e-05
3.7166e-05
3.71669e-05
3.71678e-05
3.71683e-05
3.71686e-05
3.71685e-05
3.7168e-05
3.71672e-05
3.71662e-05
3.71651e-05
3.71641e-05
3.7162e-05
3.71612e-05
3.71607e-05
3.71604e-05
3.71605e-05
3.71608e-05
3.71614e-05
3.71623e-05
3.71633e-05
3.71644e-05
3.71653e-05
3.71661e-05
3.71667e-05
3.7167e-05
3.71669e-05
3.71665e-05
3.71658e-05
3.71649e-05
3.71638e-05
3.71629e-05
3.71609e-05
3.71602e-05
3.71596e-05
3.71593e-05
3.71593e-05
3.71596e-05
3.71601e-05
3.7161e-05
3.71619e-05
3.7163e-05
3.71638e-05
3.71647e-05
3.71653e-05
3.71656e-05
3.71656e-05
3.71652e-05
3.71645e-05
3.71637e-05
3.71627e-05
3.71618e-05
3.71601e-05
3.71594e-05
3.71588e-05
3.71585e-05
3.71585e-05
3.71587e-05
3.71592e-05
3.716e-05
3.71608e-05
3.71619e-05
3.71627e-05
3.71636e-05
3.71642e-05
3.71645e-05
3.71645e-05
3.71642e-05
3.71636e-05
3.71628e-05
3.71619e-05
3.7161e-05
3.71594e-05
3.71587e-05
3.71581e-05
3.71577e-05
3.71577e-05
3.71579e-05
3.71583e-05
3.71591e-05
3.71599e-05
3.7161e-05
3.71618e-05
3.71626e-05
3.71632e-05
3.71636e-05
3.71636e-05
3.71633e-05
3.71628e-05
3.7162e-05
3.71611e-05
3.71602e-05
3.71589e-05
3.71583e-05
3.71576e-05
3.71572e-05
3.71572e-05
3.71574e-05
3.71577e-05
3.71586e-05
3.71593e-05
3.71604e-05
3.71612e-05
3.7162e-05
3.71626e-05
3.7163e-05
3.71631e-05
3.71628e-05
3.71623e-05
3.71615e-05
3.71606e-05
3.71598e-05
3.71586e-05
3.7158e-05
3.71574e-05
3.71569e-05
3.71569e-05
3.71571e-05
3.71574e-05
3.71582e-05
3.7159e-05
3.716e-05
3.71608e-05
3.71616e-05
3.71621e-05
3.71626e-05
3.71627e-05
3.71624e-05
3.71619e-05
3.71612e-05
3.71603e-05
3.71595e-05
3.71904e-05
3.7195e-05
3.71885e-05
3.71874e-05
3.71947e-05
3.7189e-05
3.71882e-05
3.71985e-05
3.71916e-05
3.72017e-05
3.71936e-05
3.72043e-05
3.71952e-05
3.72051e-05
3.72071e-05
3.71951e-05
3.72023e-05
3.71932e-05
3.7191e-05
3.71978e-05
2.07326e-05
1.92016e-05
1.96953e-05
2.20439e-05
2.56591e-05
2.97922e-05
3.37812e-05
3.72794e-05
4.01694e-05
4.24204e-05
4.39837e-05
4.47798e-05
4.47494e-05
4.39119e-05
4.23365e-05
4.00294e-05
3.69451e-05
3.30629e-05
2.85971e-05
2.41759e-05
2.45497e-05
2.90958e-05
3.40082e-05
3.82678e-05
4.13728e-05
4.3368e-05
4.45877e-05
4.5332e-05
4.57777e-05
4.59938e-05
4.587e-05
4.51468e-05
4.35892e-05
4.1082e-05
3.75919e-05
3.31501e-05
2.82674e-05
2.40349e-05
2.16576e-05
2.18739e-05
3.48502e-05
3.81882e-05
4.04481e-05
4.18441e-05
4.26392e-05
4.30323e-05
4.32214e-05
4.33317e-05
4.34945e-05
4.39524e-05
4.4353e-05
4.37188e-05
4.12996e-05
3.70515e-05
3.15534e-05
2.63756e-05