/*--------------------------------*- C++ -*----------------------------------*\
| =========                 |                                                 |
| \\      /  F ield         | OpenFOAM: The Open Source CFD Toolbox           |
|  \\    /   O peration     | Version:  2.4.0                                 |
|   \\  /    A nd           | Web:      www.OpenFOAM.org                      |
|    \\/     M anipulation  |                                                 |
\*---------------------------------------------------------------------------*/
FoamFile
{
    version     2.0;
    format      ascii;
    class       volScalarField;
    location    "120";
    object      k;
}
// * * * * * * * * * * * * * * * * * * * * * * * * * * * * * * * * * * * * * //

dimensions      [0 2 -2 0 0 0 0];

internalField   nonuniform List<scalar> 
283312
(
2.49798e-05
2.07465e-05
1.84712e-05
1.83669e-05
2.02253e-05
2.35416e-05
2.76416e-05
3.18914e-05
3.58673e-05
3.93165e-05
4.20977e-05
4.41385e-05
4.53977e-05
4.58556e-05
4.55309e-05
4.44293e-05
4.24761e-05
3.95178e-05
3.54576e-05
3.05253e-05
2.5102e-05
2.71258e-05
3.10579e-05
3.56566e-05
3.9894e-05
4.32093e-05
4.5544e-05
4.70769e-05
4.79493e-05
4.82918e-05
4.84069e-05
4.86283e-05
4.89324e-05
4.88039e-05
4.74863e-05
4.45971e-05
4.00469e-05
3.44993e-05
2.93561e-05
2.60669e-05
3.58323e-05
3.87102e-05
4.15615e-05
4.37797e-05
4.52768e-05
4.61424e-05
4.65714e-05
4.67591e-05
4.66415e-05
4.67198e-05
4.82531e-05
5.17197e-05
5.61513e-05
5.98256e-05
6.04641e-05
5.59341e-05
4.8045e-05
4.03607e-05
3.55957e-05
3.45164e-05
3.98929e-05
4.20637e-05
4.35046e-05
4.42989e-05
4.46671e-05
4.48302e-05
4.49483e-05
4.50746e-05
4.49619e-05
4.61527e-05
5.03386e-05
5.52325e-05
5.62784e-05
5.15007e-05
4.39473e-05
3.76721e-05
3.4095e-05
3.33217e-05
3.47556e-05
3.73321e-05
4.22399e-05
4.31819e-05
4.36586e-05
4.38671e-05
4.39723e-05
4.40518e-05
4.41576e-05
4.42977e-05
4.43462e-05
4.87142e-05
5.98034e-05
7.1256e-05
7.48459e-05
6.9622e-05
5.78229e-05
4.60107e-05
3.92553e-05
3.76947e-05
3.89061e-05
4.07751e-05
4.28812e-05
4.32183e-05
4.33532e-05
4.34002e-05
4.34393e-05
4.34977e-05
4.36034e-05
4.37547e-05
4.40799e-05
5.06274e-05
6.6295e-05
8.23448e-05
7.87123e-05
6.22163e-05
4.87764e-05
4.12648e-05
3.89783e-05
3.95955e-05
4.10229e-05
4.22044e-05
4.31291e-05
4.30764e-05
4.30774e-05
4.30977e-05
4.31429e-05
4.32059e-05
4.33066e-05
4.34499e-05
4.38246e-05
4.90545e-05
6.7107e-05
0.000111964
0.000160059
0.00015806
0.0001184
8.00953e-05
5.7841e-05
4.80653e-05
4.453e-05
4.34427e-05
4.29437e-05
4.29018e-05
4.29016e-05
4.29152e-05
4.2947e-05
4.29977e-05
4.30802e-05
4.32075e-05
4.34285e-05
4.01359e-05
3.77726e-05
5.41774e-05
8.8227e-05
0.000104782
9.09172e-05
6.87368e-05
5.37053e-05
4.66363e-05
4.40011e-05
4.31782e-05
4.27718e-05
4.27756e-05
4.27868e-05
4.28061e-05
4.28366e-05
4.2882e-05
4.2948e-05
4.306e-05
4.3222e-05
3.83095e-05
3.13034e-05
3.04488e-05
4.20234e-05
5.4155e-05
5.43232e-05
4.91524e-05
4.52325e-05
4.34901e-05
4.29328e-05
4.27986e-05
4.27024e-05
4.27145e-05
4.27238e-05
4.27374e-05
4.27588e-05
4.27939e-05
4.28446e-05
4.29404e-05
4.30675e-05
3.73948e-05
3.00347e-05
2.49683e-05
2.70128e-05
3.36548e-05
3.83945e-05
4.06768e-05
4.17726e-05
4.23219e-05
4.25736e-05
4.2671e-05
4.26644e-05
4.2675e-05
4.26836e-05
4.26962e-05
4.27136e-05
4.27413e-05
4.27791e-05
4.28563e-05
4.29467e-05
3.66562e-05
2.92525e-05
2.35147e-05
2.37185e-05
2.91725e-05
3.51062e-05
3.91345e-05
4.12555e-05
4.21814e-05
4.25245e-05
4.26336e-05
4.26441e-05
4.26523e-05
4.26588e-05
4.26678e-05
4.26804e-05
4.27008e-05
4.273e-05
4.27905e-05
4.28673e-05
3.61148e-05
2.90966e-05
2.39986e-05
2.43962e-05
2.96653e-05
3.54714e-05
3.93983e-05
4.14037e-05
4.22383e-05
4.25313e-05
4.26199e-05
4.26296e-05
4.2637e-05
4.26427e-05
4.26502e-05
4.26599e-05
4.26748e-05
4.26962e-05
4.27393e-05
4.27976e-05
3.58594e-05
2.83779e-05
2.29717e-05
2.41148e-05
2.99342e-05
3.58061e-05
3.9612e-05
4.14987e-05
4.22652e-05
4.25291e-05
4.26079e-05
4.26202e-05
4.26269e-05
4.26314e-05
4.2637e-05
4.26442e-05
4.26548e-05
4.26705e-05
4.27003e-05
4.27749e-05
3.597e-05
2.92623e-05
2.43315e-05
2.53154e-05
3.06897e-05
3.61809e-05
3.97687e-05
4.15531e-05
4.22773e-05
4.25259e-05
4.26e-05
4.26143e-05
4.26199e-05
4.26236e-05
4.26281e-05
4.26337e-05
4.26412e-05
4.26528e-05
4.26727e-05
4.27369e-05
3.55421e-05
2.771e-05
2.31976e-05
2.53704e-05
3.12052e-05
3.66189e-05
4.00106e-05
4.16556e-05
4.23107e-05
4.2532e-05
4.25969e-05
4.26113e-05
4.26148e-05
4.26174e-05
4.26208e-05
4.2625e-05
4.26304e-05
4.26367e-05
4.26459e-05
4.26496e-05
3.57709e-05
2.61552e-05
2.27276e-05
2.62736e-05
3.25382e-05
3.76969e-05
4.06243e-05
4.19257e-05
4.24064e-05
4.25585e-05
4.26006e-05
4.26102e-05
4.2611e-05
4.26126e-05
4.26152e-05
4.26186e-05
4.26229e-05
4.26279e-05
4.26343e-05
4.26367e-05
4.18952e-05
4.14396e-05
4.1624e-05
4.20154e-05
4.22825e-05
4.24007e-05
4.25032e-05
4.25699e-05
4.25993e-05
4.26083e-05
4.261e-05
4.26067e-05
4.2607e-05
4.26082e-05
4.26103e-05
4.2613e-05
4.26164e-05
4.26201e-05
4.26247e-05
4.26297e-05
4.26133e-05
4.2603e-05
4.26075e-05
4.26179e-05
4.26229e-05
4.26215e-05
4.26183e-05
4.2615e-05
4.26118e-05
4.26091e-05
4.26074e-05
4.26036e-05
4.26036e-05
4.26045e-05
4.26061e-05
4.26083e-05
4.26111e-05
4.26141e-05
4.26173e-05
4.26198e-05
4.26216e-05
4.26205e-05
4.26203e-05
4.2622e-05
4.26217e-05
4.26197e-05
4.26162e-05
4.26124e-05
4.26089e-05
4.26062e-05
4.26044e-05
4.26005e-05
4.26004e-05
4.2601e-05
4.26023e-05
4.26041e-05
4.26064e-05
4.26089e-05
4.26118e-05
4.26143e-05
4.2616e-05
4.26156e-05
4.2615e-05
4.26155e-05
4.26152e-05
4.26138e-05
4.26112e-05
4.26081e-05
4.26052e-05
4.26029e-05
4.26014e-05
4.25978e-05
4.25975e-05
4.25979e-05
4.25989e-05
4.26003e-05
4.26023e-05
4.26044e-05
4.26067e-05
4.26085e-05
4.26101e-05
4.26102e-05
4.26104e-05
4.26111e-05
4.26108e-05
4.26096e-05
4.26074e-05
4.26048e-05
4.26023e-05
4.26002e-05
4.25987e-05
4.25951e-05
4.25948e-05
4.2595e-05
4.25958e-05
4.2597e-05
4.25986e-05
4.26004e-05
4.26025e-05
4.26043e-05
4.26058e-05
4.26062e-05
4.26063e-05
4.26066e-05
4.26062e-05
4.26053e-05
4.26035e-05
4.26014e-05
4.25992e-05
4.25974e-05
4.2596e-05
4.25927e-05
4.25923e-05
4.25924e-05
4.2593e-05
4.25939e-05
4.25953e-05
4.25968e-05
4.25986e-05
4.26001e-05
4.26015e-05
4.26021e-05
4.26025e-05
4.2603e-05
4.26028e-05
4.26019e-05
4.26003e-05
4.25985e-05
4.25966e-05
4.2595e-05
4.25936e-05
4.25905e-05
4.259e-05
4.259e-05
4.25904e-05
4.25912e-05
4.25924e-05
4.25937e-05
4.25953e-05
4.25967e-05
4.2598e-05
4.25986e-05
4.25991e-05
4.25994e-05
4.25992e-05
4.25985e-05
4.25972e-05
4.25957e-05
4.2594e-05
4.25926e-05
4.25913e-05
4.25884e-05
4.25879e-05
4.25878e-05
4.25881e-05
4.25887e-05
4.25897e-05
4.25908e-05
4.25922e-05
4.25935e-05
4.25947e-05
4.25954e-05
4.25959e-05
4.25963e-05
4.25962e-05
4.25956e-05
4.25945e-05
4.25932e-05
4.25917e-05
4.25904e-05
4.25892e-05
4.25865e-05
4.2586e-05
4.25858e-05
4.2586e-05
4.25865e-05
4.25873e-05
4.25883e-05
4.25896e-05
4.25907e-05
4.25918e-05
4.25925e-05
4.25931e-05
4.25934e-05
4.25934e-05
4.25929e-05
4.2592e-05
4.25908e-05
4.25896e-05
4.25883e-05
4.25873e-05
4.25847e-05
4.25842e-05
4.2584e-05
4.25841e-05
4.25844e-05
4.25851e-05
4.2586e-05
4.25871e-05
4.25881e-05
4.25892e-05
4.25899e-05
4.25905e-05
4.25909e-05
4.25909e-05
4.25905e-05
4.25898e-05
4.25887e-05
4.25876e-05
4.25865e-05
4.25855e-05
4.25831e-05
4.25826e-05
4.25823e-05
4.25823e-05
4.25826e-05
4.25832e-05
4.2584e-05
4.2585e-05
4.25859e-05
4.25869e-05
4.25876e-05
4.25882e-05
4.25886e-05
4.25886e-05
4.25883e-05
4.25877e-05
4.25868e-05
4.25858e-05
4.25848e-05
4.25838e-05
4.25816e-05
4.25811e-05
4.25808e-05
4.25808e-05
4.2581e-05
4.25815e-05
4.25822e-05
4.25831e-05
4.25839e-05
4.25849e-05
4.25856e-05
4.25861e-05
4.25865e-05
4.25866e-05
4.25864e-05
4.25858e-05
4.25851e-05
4.25841e-05
4.25832e-05
4.25824e-05
4.25803e-05
4.25798e-05
4.25795e-05
4.25794e-05
4.25796e-05
4.258e-05
4.25806e-05
4.25814e-05
4.25822e-05
4.25831e-05
4.25837e-05
4.25843e-05
4.25847e-05
4.25848e-05
4.25846e-05
4.25842e-05
4.25835e-05
4.25827e-05
4.25818e-05
4.2581e-05
4.25792e-05
4.25786e-05
4.25783e-05
4.25782e-05
4.25783e-05
4.25787e-05
4.25792e-05
4.25799e-05
4.25807e-05
4.25815e-05
4.25821e-05
4.25827e-05
4.25831e-05
4.25832e-05
4.25831e-05
4.25827e-05
4.25821e-05
4.25814e-05
4.25806e-05
4.25798e-05
4.25781e-05
4.25776e-05
4.25773e-05
4.25771e-05
4.25772e-05
4.25775e-05
4.2578e-05
4.25786e-05
4.25793e-05
4.25801e-05
4.25807e-05
4.25813e-05
4.25817e-05
4.25818e-05
4.25818e-05
4.25814e-05
4.25809e-05
4.25802e-05
4.25795e-05
4.25788e-05
4.25772e-05
4.25767e-05
4.25764e-05
4.25762e-05
4.25762e-05
4.25765e-05
4.25769e-05
4.25775e-05
4.25781e-05
4.25789e-05
4.25795e-05
4.258e-05
4.25804e-05
4.25806e-05
4.25806e-05
4.25803e-05
4.25798e-05
4.25792e-05
4.25785e-05
4.25778e-05
4.25765e-05
4.2576e-05
4.25756e-05
4.25754e-05
4.25754e-05
4.25756e-05
4.2576e-05
4.25766e-05
4.25772e-05
4.25779e-05
4.25784e-05
4.2579e-05
4.25794e-05
4.25796e-05
4.25796e-05
4.25793e-05
4.25789e-05
4.25783e-05
4.25777e-05
4.25771e-05
4.25758e-05
4.25753e-05
4.25749e-05
4.25747e-05
4.25747e-05
4.25749e-05
4.25752e-05
4.25757e-05
4.25763e-05
4.2577e-05
4.25775e-05
4.25781e-05
4.25785e-05
4.25787e-05
4.25787e-05
4.25785e-05
4.25781e-05
4.25776e-05
4.2577e-05
4.25764e-05
4.25753e-05
4.25748e-05
4.25744e-05
4.25742e-05
4.25742e-05
4.25743e-05
4.25746e-05
4.25751e-05
4.25756e-05
4.25763e-05
4.25768e-05
4.25774e-05
4.25778e-05
4.2578e-05
4.25781e-05
4.25779e-05
4.25775e-05
4.2577e-05
4.25764e-05
4.25758e-05
4.25748e-05
4.25743e-05
4.2574e-05
4.25737e-05
4.25737e-05
4.25738e-05
4.2574e-05
4.25745e-05
4.25751e-05
4.25757e-05
4.25762e-05
4.25768e-05
4.25771e-05
4.25774e-05
4.25775e-05
4.25773e-05
4.2577e-05
4.25765e-05
4.25759e-05
4.25754e-05
4.25746e-05
4.25741e-05
4.25737e-05
4.25734e-05
4.25734e-05
4.25735e-05
4.25737e-05
4.25742e-05
4.25747e-05
4.25753e-05
4.25758e-05
4.25764e-05
4.25768e-05
4.2577e-05
4.25771e-05
4.25769e-05
4.25766e-05
4.25762e-05
4.25756e-05
4.25751e-05
4.25744e-05
4.2574e-05
4.25736e-05
4.25733e-05
4.25732e-05
4.25734e-05
4.25736e-05
4.2574e-05
4.25745e-05
4.25751e-05
4.25756e-05
4.25762e-05
4.25766e-05
4.25768e-05
4.25769e-05
4.25767e-05
4.25765e-05
4.2576e-05
4.25755e-05
4.2575e-05
4.26041e-05
4.2609e-05
4.26027e-05
4.26015e-05
4.26088e-05
4.26031e-05
4.26021e-05
4.26118e-05
4.2605e-05
4.26144e-05
4.26064e-05
4.26163e-05
4.26075e-05
4.26169e-05
4.2619e-05
4.26075e-05
4.26146e-05
4.2606e-05
4.26039e-05
4.2611e-05
2.49309e-05
2.09745e-05
1.91321e-05
1.95127e-05
2.18032e-05
2.54295e-05
2.96554e-05
3.38912e-05
3.77633e-05
4.10547e-05
4.3647e-05
4.54847e-05
4.65394e-05
4.67989e-05
4.62859e-05
4.50085e-05
4.2876e-05
3.97198e-05
3.54614e-05
3.0407e-05
2.60467e-05
2.85004e-05
3.2674e-05
3.72897e-05
4.13808e-05
4.44843e-05
4.66391e-05
4.80363e-05
4.87951e-05
4.90242e-05
4.90482e-05
4.92435e-05
4.95857e-05
4.94915e-05
4.81188e-05
4.50598e-05
4.02746e-05
3.45749e-05
2.95054e-05
2.65364e-05
3.7183e-05
3.99874e-05
4.27091e-05
4.47887e-05
4.61649e-05
4.69376e-05
4.73161e-05
4.74794e-05
4.73107e-05
4.73411e-05
4.89821e-05
5.27875e-05
5.77132e-05
6.18504e-05
6.26195e-05
5.7829e-05
4.95936e-05
4.16932e-05
3.68833e-05
3.58437e-05
4.10118e-05
4.30617e-05
4.43899e-05
4.51012e-05
4.54212e-05
4.55662e-05
4.56811e-05
4.581e-05
4.56592e-05
4.69048e-05
5.13864e-05
5.65686e-05
5.75703e-05
5.24761e-05
4.47833e-05
3.85857e-05
3.5154e-05
3.45013e-05
3.59879e-05
3.8534e-05
4.316e-05
4.40144e-05
4.44343e-05
4.46139e-05
4.47088e-05
4.47861e-05
4.48946e-05
4.50384e-05
4.50566e-05
4.97875e-05
6.18046e-05
7.39685e-05
7.75823e-05
7.18575e-05
5.93429e-05
4.71255e-05
4.03162e-05
3.88011e-05
3.99998e-05
4.17899e-05
4.36942e-05
4.39861e-05
4.40989e-05
4.41379e-05
4.41772e-05
4.42374e-05
4.43466e-05
4.45012e-05
4.48327e-05
5.21009e-05
6.94411e-05
8.64236e-05
8.15689e-05
6.41079e-05
5.01114e-05
4.23855e-05
4.00597e-05
4.06427e-05
4.19942e-05
4.30859e-05
4.38978e-05
4.38261e-05
4.38203e-05
4.38393e-05
4.38852e-05
4.39492e-05
4.40519e-05
4.41977e-05
4.45874e-05
5.05671e-05
7.12003e-05
0.000120573
0.000170661
0.000165524
0.000122468
8.2304e-05
5.9252e-05
4.91269e-05
4.54227e-05
4.42501e-05
4.36958e-05
4.36463e-05
4.36439e-05
4.36577e-05
4.36907e-05
4.37427e-05
4.38268e-05
4.39563e-05
4.41841e-05
4.07617e-05
3.888e-05
5.77334e-05
9.43509e-05
0.000110606
9.45815e-05
7.07725e-05
5.49585e-05
4.75744e-05
4.4818e-05
4.39476e-05
4.35196e-05
4.35201e-05
4.35308e-05
4.35505e-05
4.35816e-05
4.36278e-05
4.36947e-05
4.38087e-05
4.39733e-05
3.87921e-05
3.16548e-05
3.14128e-05
4.44099e-05
5.68728e-05
5.63189e-05
5.04825e-05
4.62199e-05
4.43318e-05
4.37144e-05
4.35553e-05
4.34481e-05
4.34586e-05
4.34679e-05
4.34821e-05
4.35042e-05
4.35401e-05
4.35915e-05
4.36891e-05
4.38175e-05
3.78541e-05
3.03753e-05
2.54153e-05
2.79632e-05
3.49112e-05
3.9569e-05
4.16807e-05
4.26502e-05
4.3126e-05
4.33406e-05
4.34222e-05
4.34097e-05
4.34196e-05
4.34284e-05
4.34414e-05
4.34592e-05
4.34875e-05
4.35257e-05
4.36044e-05
4.36949e-05
3.70973e-05
2.96084e-05
2.38813e-05
2.43458e-05
3.0067e-05
3.60725e-05
4.00487e-05
4.2095e-05
4.29682e-05
4.32842e-05
4.33823e-05
4.33892e-05
4.3397e-05
4.34036e-05
4.34131e-05
4.3426e-05
4.3447e-05
4.34765e-05
4.3538e-05
4.36151e-05
3.65371e-05
2.95006e-05
2.44229e-05
2.50122e-05
3.05086e-05
3.63908e-05
4.028e-05
4.22237e-05
4.30152e-05
4.32871e-05
4.33675e-05
4.33748e-05
4.33819e-05
4.33877e-05
4.33955e-05
4.34055e-05
4.34207e-05
4.34425e-05
4.34862e-05
4.35446e-05
3.62819e-05
2.87553e-05
2.33666e-05
2.47297e-05
3.07707e-05
3.67111e-05
4.04804e-05
4.23103e-05
4.30382e-05
4.32835e-05
4.33553e-05
4.33656e-05
4.33718e-05
4.33764e-05
4.33823e-05
4.33897e-05
4.34005e-05
4.34166e-05
4.34469e-05
4.35227e-05
3.64109e-05
2.972e-05
2.47923e-05
2.59532e-05
3.15234e-05
3.7077e-05
4.06302e-05
4.2361e-05
4.30487e-05
4.32798e-05
4.33473e-05
4.33596e-05
4.33649e-05
4.33686e-05
4.33732e-05
4.3379e-05
4.33868e-05
4.33986e-05
4.34188e-05
4.34845e-05
3.59589e-05
2.80797e-05
2.36278e-05
2.60255e-05
3.20509e-05
3.75135e-05
4.08661e-05
4.24588e-05
4.30797e-05
4.3285e-05
4.3344e-05
4.33563e-05
4.33596e-05
4.33623e-05
4.33659e-05
4.33703e-05
4.33758e-05
4.33823e-05
4.33917e-05
4.33952e-05
3.61582e-05
2.63043e-05
2.30623e-05
2.69461e-05
3.34172e-05
3.85978e-05
4.1469e-05
4.27178e-05
4.31692e-05
4.33089e-05
4.33468e-05
4.33548e-05
4.33557e-05
4.33574e-05
4.33602e-05
4.33637e-05
4.33682e-05
4.33733e-05
4.33797e-05
4.33822e-05
4.26045e-05
4.21582e-05
4.23709e-05
4.27738e-05
4.30371e-05
4.3154e-05
4.32548e-05
4.33184e-05
4.33454e-05
4.33533e-05
4.33546e-05
4.33513e-05
4.33517e-05
4.3353e-05
4.33552e-05
4.3358e-05
4.33615e-05
4.33653e-05
4.337e-05
4.33751e-05
4.33578e-05
4.33478e-05
4.33529e-05
4.33634e-05
4.33681e-05
4.33664e-05
4.3363e-05
4.33595e-05
4.33562e-05
4.33536e-05
4.33519e-05
4.33481e-05
4.33482e-05
4.33492e-05
4.33509e-05
4.33532e-05
4.33561e-05
4.33591e-05
4.33625e-05
4.33649e-05
4.33668e-05
4.33655e-05
4.33653e-05
4.3367e-05
4.33666e-05
4.33644e-05
4.33608e-05
4.33569e-05
4.33533e-05
4.33506e-05
4.33489e-05
4.3345e-05
4.3345e-05
4.33457e-05
4.3347e-05
4.33489e-05
4.33513e-05
4.33539e-05
4.33569e-05
4.33593e-05
4.3361e-05
4.33605e-05
4.33599e-05
4.33604e-05
4.336e-05
4.33585e-05
4.33557e-05
4.33526e-05
4.33496e-05
4.33474e-05
4.33458e-05
4.33422e-05
4.33421e-05
4.33425e-05
4.33435e-05
4.33451e-05
4.33471e-05
4.33492e-05
4.33516e-05
4.33534e-05
4.3355e-05
4.33551e-05
4.33553e-05
4.33559e-05
4.33555e-05
4.33542e-05
4.33519e-05
4.33492e-05
4.33467e-05
4.33446e-05
4.33431e-05
4.33396e-05
4.33393e-05
4.33396e-05
4.33404e-05
4.33416e-05
4.33433e-05
4.33452e-05
4.33473e-05
4.33491e-05
4.33506e-05
4.33509e-05
4.3351e-05
4.33513e-05
4.33509e-05
4.33498e-05
4.33479e-05
4.33458e-05
4.33436e-05
4.33418e-05
4.33404e-05
4.33371e-05
4.33368e-05
4.33369e-05
4.33375e-05
4.33385e-05
4.33399e-05
4.33415e-05
4.33434e-05
4.33448e-05
4.33462e-05
4.33467e-05
4.33472e-05
4.33476e-05
4.33473e-05
4.33464e-05
4.33448e-05
4.33429e-05
4.3341e-05
4.33393e-05
4.3338e-05
4.33348e-05
4.33344e-05
4.33344e-05
4.33349e-05
4.33357e-05
4.33369e-05
4.33383e-05
4.334e-05
4.33413e-05
4.33427e-05
4.33433e-05
4.33437e-05
4.33439e-05
4.33437e-05
4.3343e-05
4.33416e-05
4.334e-05
4.33384e-05
4.33369e-05
4.33357e-05
4.33327e-05
4.33323e-05
4.33322e-05
4.33325e-05
4.33332e-05
4.33342e-05
4.33354e-05
4.33368e-05
4.3338e-05
4.33393e-05
4.334e-05
4.33405e-05
4.33408e-05
4.33407e-05
4.33401e-05
4.33389e-05
4.33375e-05
4.33361e-05
4.33347e-05
4.33335e-05
4.33308e-05
4.33303e-05
4.33301e-05
4.33304e-05
4.33309e-05
4.33318e-05
4.33328e-05
4.33341e-05
4.33352e-05
4.33364e-05
4.33371e-05
4.33376e-05
4.33379e-05
4.33378e-05
4.33373e-05
4.33363e-05
4.33351e-05
4.33338e-05
4.33326e-05
4.33316e-05
4.3329e-05
4.33285e-05
4.33283e-05
4.33284e-05
4.33288e-05
4.33296e-05
4.33305e-05
4.33316e-05
4.33326e-05
4.33337e-05
4.33344e-05
4.3335e-05
4.33353e-05
4.33353e-05
4.33349e-05
4.33341e-05
4.3333e-05
4.33319e-05
4.33307e-05
4.33297e-05
4.33273e-05
4.33268e-05
4.33266e-05
4.33267e-05
4.3327e-05
4.33276e-05
4.33284e-05
4.33294e-05
4.33304e-05
4.33314e-05
4.33321e-05
4.33326e-05
4.3333e-05
4.3333e-05
4.33327e-05
4.3332e-05
4.33311e-05
4.333e-05
4.3329e-05
4.33281e-05
4.33259e-05
4.33254e-05
4.33251e-05
4.33251e-05
4.33253e-05
4.33259e-05
4.33266e-05
4.33275e-05
4.33283e-05
4.33293e-05
4.333e-05
4.33305e-05
4.33309e-05
4.3331e-05
4.33307e-05
4.33301e-05
4.33293e-05
4.33284e-05
4.33274e-05
4.33266e-05
4.33245e-05
4.3324e-05
4.33237e-05
4.33237e-05
4.33239e-05
4.33243e-05
4.33249e-05
4.33258e-05
4.33266e-05
4.33274e-05
4.33281e-05
4.33287e-05
4.3329e-05
4.33291e-05
4.33289e-05
4.33284e-05
4.33277e-05
4.33269e-05
4.3326e-05
4.33252e-05
4.33233e-05
4.33229e-05
4.33225e-05
4.33224e-05
4.33226e-05
4.3323e-05
4.33235e-05
4.33242e-05
4.3325e-05
4.33258e-05
4.33264e-05
4.3327e-05
4.33274e-05
4.33275e-05
4.33274e-05
4.33269e-05
4.33263e-05
4.33256e-05
4.33248e-05
4.3324e-05
4.33223e-05
4.33218e-05
4.33215e-05
4.33214e-05
4.33215e-05
4.33218e-05
4.33222e-05
4.33229e-05
4.33236e-05
4.33244e-05
4.3325e-05
4.33256e-05
4.33259e-05
4.33261e-05
4.3326e-05
4.33256e-05
4.33251e-05
4.33244e-05
4.33237e-05
4.3323e-05
4.33214e-05
4.33209e-05
4.33206e-05
4.33204e-05
4.33205e-05
4.33207e-05
4.33211e-05
4.33218e-05
4.33224e-05
4.33232e-05
4.33238e-05
4.33243e-05
4.33247e-05
4.33249e-05
4.33248e-05
4.33245e-05
4.3324e-05
4.33234e-05
4.33227e-05
4.3322e-05
4.33206e-05
4.33201e-05
4.33198e-05
4.33196e-05
4.33196e-05
4.33199e-05
4.33202e-05
4.33208e-05
4.33214e-05
4.33221e-05
4.33227e-05
4.33233e-05
4.33236e-05
4.33238e-05
4.33238e-05
4.33235e-05
4.33231e-05
4.33225e-05
4.33218e-05
4.33212e-05
4.33199e-05
4.33195e-05
4.33191e-05
4.33189e-05
4.33189e-05
4.33191e-05
4.33194e-05
4.332e-05
4.33205e-05
4.33212e-05
4.33218e-05
4.33223e-05
4.33227e-05
4.33229e-05
4.33229e-05
4.33227e-05
4.33223e-05
4.33217e-05
4.33211e-05
4.33205e-05
4.33194e-05
4.3319e-05
4.33186e-05
4.33184e-05
4.33183e-05
4.33185e-05
4.33188e-05
4.33193e-05
4.33199e-05
4.33205e-05
4.33211e-05
4.33216e-05
4.3322e-05
4.33222e-05
4.33223e-05
4.3322e-05
4.33217e-05
4.33212e-05
4.33206e-05
4.332e-05
4.33189e-05
4.33185e-05
4.33181e-05
4.33179e-05
4.33178e-05
4.3318e-05
4.33182e-05
4.33188e-05
4.33193e-05
4.33199e-05
4.33205e-05
4.3321e-05
4.33214e-05
4.33216e-05
4.33217e-05
4.33214e-05
4.33211e-05
4.33206e-05
4.332e-05
4.33195e-05
4.33187e-05
4.33182e-05
4.33178e-05
4.33176e-05
4.33175e-05
4.33177e-05
4.33179e-05
4.33184e-05
4.33189e-05
4.33195e-05
4.33201e-05
4.33206e-05
4.3321e-05
4.33212e-05
4.33213e-05
4.33211e-05
4.33208e-05
4.33203e-05
4.33197e-05
4.33192e-05
4.33185e-05
4.33181e-05
4.33177e-05
4.33174e-05
4.33174e-05
4.33175e-05
4.33177e-05
4.33182e-05
4.33187e-05
4.33193e-05
4.33198e-05
4.33204e-05
4.33207e-05
4.3321e-05
4.33211e-05
4.33209e-05
4.33206e-05
4.33201e-05
4.33196e-05
4.33191e-05
4.33476e-05
4.3352e-05
4.33462e-05
4.33452e-05
4.3352e-05
4.33467e-05
4.33458e-05
4.33549e-05
4.33485e-05
4.33574e-05
4.33499e-05
4.33593e-05
4.3351e-05
4.33598e-05
4.33617e-05
4.33509e-05
4.33575e-05
4.33494e-05
4.33476e-05
4.3354e-05
2.4867e-05
2.12439e-05
1.98771e-05
2.07599e-05
2.34751e-05
2.737e-05
3.16893e-05
3.58904e-05
3.9646e-05
4.2771e-05
4.51675e-05
4.67959e-05
4.76397e-05
4.7695e-05
4.69886e-05
4.55269e-05
4.32022e-05
3.98342e-05
3.53748e-05
3.02208e-05
2.70696e-05
2.99304e-05
3.43024e-05
3.89004e-05
4.28316e-05
4.57407e-05
4.77294e-05
4.89999e-05
4.96477e-05
4.97575e-05
4.96802e-05
4.9841e-05
5.02137e-05
5.01391e-05
4.86869e-05
4.5439e-05
4.04193e-05
3.46034e-05
2.96655e-05
2.70662e-05
3.85218e-05
4.12531e-05
4.38493e-05
4.57963e-05
4.70577e-05
4.77454e-05
4.80793e-05
4.82216e-05
4.79958e-05
4.79631e-05
4.97017e-05
5.38473e-05
5.92742e-05
6.38697e-05
6.47285e-05
5.96517e-05
5.10802e-05
4.29853e-05
3.81492e-05
3.71574e-05
4.21311e-05
4.40629e-05
4.52836e-05
4.59176e-05
4.6195e-05
4.6325e-05
4.64384e-05
4.65706e-05
4.63766e-05
4.76663e-05
5.2428e-05
5.78596e-05
5.87632e-05
5.3339e-05
4.55589e-05
3.94833e-05
3.6215e-05
3.56851e-05
3.72218e-05
3.97361e-05
4.4087e-05
4.48593e-05
4.52277e-05
4.53822e-05
4.5469e-05
4.5545e-05
4.56567e-05
4.58045e-05
4.5787e-05
5.08834e-05
6.38266e-05
7.66356e-05
8.01966e-05
7.39168e-05
6.06967e-05
4.81412e-05
4.13398e-05
3.98988e-05
4.10937e-05
4.28082e-05
4.45217e-05
4.47731e-05
4.48672e-05
4.49001e-05
4.49401e-05
4.50024e-05
4.51151e-05
4.52731e-05
4.56094e-05
5.36407e-05
7.27157e-05
9.05004e-05
8.42569e-05
6.58621e-05
5.13549e-05
4.34633e-05
4.11286e-05
4.16893e-05
4.29699e-05
4.39767e-05
4.46845e-05
4.45978e-05
4.45873e-05
4.46057e-05
4.46525e-05
4.47175e-05
4.48224e-05
4.49707e-05
4.53748e-05
5.21711e-05
7.55991e-05
0.000129588
0.000181218
0.000172549
0.000126138
8.42887e-05
6.05613e-05
5.01502e-05
4.63089e-05
4.50673e-05
4.44695e-05
4.44146e-05
4.4411e-05
4.44254e-05
4.44597e-05
4.45128e-05
4.45986e-05
4.47303e-05
4.49651e-05
4.14139e-05
4.01026e-05
6.15511e-05
0.000100645
0.000116301
9.80202e-05
7.26519e-05
5.6138e-05
4.84905e-05
4.56393e-05
4.47334e-05
4.4291e-05
4.42892e-05
4.42997e-05
4.43199e-05
4.43517e-05
4.43988e-05
4.44665e-05
4.45825e-05
4.47498e-05
3.92857e-05
3.20261e-05
3.24514e-05
4.68922e-05
5.95731e-05
5.82431e-05
5.17624e-05
4.71904e-05
4.51784e-05
4.45122e-05
4.43335e-05
4.42183e-05
4.42277e-05
4.42372e-05
4.4252e-05
4.42747e-05
4.43115e-05
4.43635e-05
4.44629e-05
4.45926e-05
3.83247e-05
3.07363e-05
2.58966e-05
2.89628e-05
3.619e-05
4.07474e-05
4.26898e-05
4.35399e-05
4.39481e-05
4.41295e-05
4.4197e-05
4.41798e-05
4.41892e-05
4.41983e-05
4.42117e-05
4.42299e-05
4.42588e-05
4.42975e-05
4.43775e-05
4.44681e-05
3.75503e-05
2.99876e-05
2.42748e-05
2.50092e-05
3.0995e-05
3.70643e-05
4.0984e-05
4.29552e-05
4.3777e-05
4.40675e-05
4.41555e-05
4.41593e-05
4.41668e-05
4.41736e-05
4.41835e-05
4.41968e-05
4.42182e-05
4.42481e-05
4.43107e-05
4.43879e-05
3.69708e-05
2.99341e-05
2.48758e-05
2.56624e-05
3.13875e-05
3.73398e-05
4.11862e-05
4.30665e-05
4.38154e-05
4.4067e-05
4.41397e-05
4.41451e-05
4.41519e-05
4.41578e-05
4.41659e-05
4.41762e-05
4.41917e-05
4.42138e-05
4.42583e-05
4.43168e-05
3.67166e-05
2.91597e-05
2.37884e-05
2.5378e-05
3.16425e-05
3.76462e-05
4.13738e-05
4.31453e-05
4.38349e-05
4.40623e-05
4.41275e-05
4.41358e-05
4.41418e-05
4.41465e-05
4.41526e-05
4.41603e-05
4.41714e-05
4.41878e-05
4.42185e-05
4.42956e-05
3.68662e-05
3.02111e-05
2.52817e-05
2.6624e-05
3.2392e-05
3.80032e-05
4.1517e-05
4.31924e-05
4.38439e-05
4.40581e-05
4.41194e-05
4.41299e-05
4.41348e-05
4.41387e-05
4.41435e-05
4.41495e-05
4.41575e-05
4.41695e-05
4.419e-05
4.42571e-05
3.63886e-05
2.84767e-05
2.40862e-05
2.67145e-05
3.29312e-05
3.84377e-05
4.17467e-05
4.32855e-05
4.38725e-05
4.40624e-05
4.41158e-05
4.41263e-05
4.41295e-05
4.41323e-05
4.4136e-05
4.41406e-05
4.41463e-05
4.41529e-05
4.41625e-05
4.41659e-05
3.65525e-05
2.64607e-05
2.34222e-05
2.76563e-05
3.43319e-05
3.95267e-05
4.23377e-05
4.35332e-05
4.39559e-05
4.40839e-05
4.41178e-05
4.41245e-05
4.41254e-05
4.41273e-05
4.41302e-05
4.41339e-05
4.41385e-05
4.41437e-05
4.41503e-05
4.41526e-05
4.33371e-05
4.29021e-05
4.31441e-05
4.35578e-05
4.38167e-05
4.39324e-05
4.40314e-05
4.40917e-05
4.41164e-05
4.41232e-05
4.41242e-05
4.41209e-05
4.41214e-05
4.41228e-05
4.41251e-05
4.41281e-05
4.41317e-05
4.41356e-05
4.41404e-05
4.41455e-05
4.41274e-05
4.41177e-05
4.41233e-05
4.4134e-05
4.41382e-05
4.41363e-05
4.41327e-05
4.4129e-05
4.41257e-05
4.4123e-05
4.41214e-05
4.41177e-05
4.41179e-05
4.41189e-05
4.41208e-05
4.41231e-05
4.41261e-05
4.41293e-05
4.41326e-05
4.41351e-05
4.41369e-05
4.41355e-05
4.41354e-05
4.41371e-05
4.41364e-05
4.41341e-05
4.41303e-05
4.41263e-05
4.41227e-05
4.412e-05
4.41184e-05
4.41145e-05
4.41146e-05
4.41154e-05
4.41168e-05
4.41187e-05
4.41213e-05
4.41239e-05
4.41269e-05
4.41294e-05
4.41311e-05
4.41304e-05
4.41298e-05
4.41303e-05
4.41298e-05
4.41281e-05
4.41252e-05
4.4122e-05
4.41191e-05
4.41168e-05
4.41153e-05
4.41117e-05
4.41116e-05
4.41121e-05
4.41132e-05
4.41148e-05
4.41169e-05
4.41191e-05
4.41215e-05
4.41234e-05
4.41249e-05
4.41249e-05
4.41251e-05
4.41257e-05
4.41253e-05
4.41238e-05
4.41214e-05
4.41187e-05
4.41161e-05
4.4114e-05
4.41125e-05
4.4109e-05
4.41088e-05
4.41091e-05
4.411e-05
4.41113e-05
4.41131e-05
4.4115e-05
4.41172e-05
4.4119e-05
4.41205e-05
4.41207e-05
4.41208e-05
4.4121e-05
4.41205e-05
4.41194e-05
4.41174e-05
4.41152e-05
4.4113e-05
4.41112e-05
4.41098e-05
4.41065e-05
4.41062e-05
4.41064e-05
4.41071e-05
4.41081e-05
4.41096e-05
4.41113e-05
4.41131e-05
4.41146e-05
4.4116e-05
4.41165e-05
4.41169e-05
4.41173e-05
4.4117e-05
4.41159e-05
4.41142e-05
4.41123e-05
4.41104e-05
4.41087e-05
4.41074e-05
4.41042e-05
4.41038e-05
4.41039e-05
4.41044e-05
4.41053e-05
4.41066e-05
4.4108e-05
4.41096e-05
4.4111e-05
4.41124e-05
4.41129e-05
4.41133e-05
4.41135e-05
4.41133e-05
4.41124e-05
4.41111e-05
4.41094e-05
4.41077e-05
4.41062e-05
4.4105e-05
4.41021e-05
4.41016e-05
4.41016e-05
4.4102e-05
4.41027e-05
4.41038e-05
4.4105e-05
4.41064e-05
4.41077e-05
4.41089e-05
4.41096e-05
4.41101e-05
4.41104e-05
4.41102e-05
4.41095e-05
4.41083e-05
4.41069e-05
4.41054e-05
4.4104e-05
4.41029e-05
4.41001e-05
4.40996e-05
4.40995e-05
4.40998e-05
4.41003e-05
4.41013e-05
4.41023e-05
4.41036e-05
4.41048e-05
4.41059e-05
4.41066e-05
4.41071e-05
4.41074e-05
4.41073e-05
4.41067e-05
4.41057e-05
4.41045e-05
4.41032e-05
4.41019e-05
4.41009e-05
4.40983e-05
4.40978e-05
4.40976e-05
4.40978e-05
4.40982e-05
4.4099e-05
4.41e-05
4.41011e-05
4.41021e-05
4.41032e-05
4.41039e-05
4.41045e-05
4.41048e-05
4.41047e-05
4.41043e-05
4.41034e-05
4.41023e-05
4.41011e-05
4.41e-05
4.4099e-05
4.40966e-05
4.40961e-05
4.40959e-05
4.4096e-05
4.40964e-05
4.4097e-05
4.40978e-05
4.40989e-05
4.40998e-05
4.41008e-05
4.41015e-05
4.41021e-05
4.41024e-05
4.41024e-05
4.4102e-05
4.41013e-05
4.41004e-05
4.40993e-05
4.40983e-05
4.40973e-05
4.40951e-05
4.40946e-05
4.40944e-05
4.40944e-05
4.40947e-05
4.40952e-05
4.4096e-05
4.40969e-05
4.40978e-05
4.40987e-05
4.40994e-05
4.40999e-05
4.41003e-05
4.41003e-05
4.41e-05
4.40994e-05
4.40986e-05
4.40976e-05
4.40967e-05
4.40958e-05
4.40938e-05
4.40933e-05
4.4093e-05
4.4093e-05
4.40932e-05
4.40937e-05
4.40943e-05
4.40951e-05
4.40959e-05
4.40968e-05
4.40975e-05
4.4098e-05
4.40984e-05
4.40985e-05
4.40982e-05
4.40977e-05
4.4097e-05
4.40961e-05
4.40952e-05
4.40944e-05
4.40926e-05
4.40921e-05
4.40918e-05
4.40917e-05
4.40919e-05
4.40923e-05
4.40928e-05
4.40936e-05
4.40943e-05
4.40952e-05
4.40958e-05
4.40964e-05
4.40967e-05
4.40968e-05
4.40967e-05
4.40962e-05
4.40956e-05
4.40948e-05
4.4094e-05
4.40932e-05
4.40915e-05
4.4091e-05
4.40907e-05
4.40906e-05
4.40907e-05
4.40911e-05
4.40915e-05
4.40922e-05
4.40929e-05
4.40937e-05
4.40943e-05
4.40949e-05
4.40953e-05
4.40954e-05
4.40953e-05
4.40949e-05
4.40943e-05
4.40936e-05
4.40928e-05
4.40921e-05
4.40906e-05
4.40901e-05
4.40898e-05
4.40896e-05
4.40897e-05
4.409e-05
4.40904e-05
4.40911e-05
4.40917e-05
4.40925e-05
4.40931e-05
4.40936e-05
4.4094e-05
4.40941e-05
4.40941e-05
4.40937e-05
4.40932e-05
4.40926e-05
4.40918e-05
4.40912e-05
4.40898e-05
4.40893e-05
4.4089e-05
4.40888e-05
4.40889e-05
4.40891e-05
4.40895e-05
4.40901e-05
4.40907e-05
4.40914e-05
4.4092e-05
4.40925e-05
4.40929e-05
4.40931e-05
4.4093e-05
4.40927e-05
4.40923e-05
4.40917e-05
4.4091e-05
4.40904e-05
4.40891e-05
4.40886e-05
4.40883e-05
4.40881e-05
4.40881e-05
4.40883e-05
4.40887e-05
4.40892e-05
4.40898e-05
4.40905e-05
4.40911e-05
4.40916e-05
4.4092e-05
4.40922e-05
4.40921e-05
4.40919e-05
4.40915e-05
4.40909e-05
4.40903e-05
4.40897e-05
4.40886e-05
4.40881e-05
4.40878e-05
4.40875e-05
4.40875e-05
4.40877e-05
4.4088e-05
4.40886e-05
4.40891e-05
4.40898e-05
4.40903e-05
4.40909e-05
4.40912e-05
4.40915e-05
4.40915e-05
4.40912e-05
4.40909e-05
4.40903e-05
4.40897e-05
4.40891e-05
4.40881e-05
4.40876e-05
4.40873e-05
4.4087e-05
4.4087e-05
4.40872e-05
4.40875e-05
4.4088e-05
4.40885e-05
4.40892e-05
4.40897e-05
4.40902e-05
4.40906e-05
4.40908e-05
4.40909e-05
4.40906e-05
4.40903e-05
4.40898e-05
4.40892e-05
4.40886e-05
4.40878e-05
4.40874e-05
4.4087e-05
4.40867e-05
4.40867e-05
4.40869e-05
4.40871e-05
4.40876e-05
4.40881e-05
4.40888e-05
4.40893e-05
4.40898e-05
4.40902e-05
4.40904e-05
4.40905e-05
4.40903e-05
4.409e-05
4.40895e-05
4.40889e-05
4.40884e-05
4.40877e-05
4.40872e-05
4.40868e-05
4.40866e-05
4.40866e-05
4.40867e-05
4.40869e-05
4.40874e-05
4.40879e-05
4.40886e-05
4.40891e-05
4.40896e-05
4.409e-05
4.40902e-05
4.40903e-05
4.40901e-05
4.40898e-05
4.40893e-05
4.40887e-05
4.40882e-05
4.41161e-05
4.412e-05
4.41147e-05
4.41139e-05
4.41201e-05
4.41152e-05
4.41145e-05
4.41231e-05
4.41171e-05
4.41255e-05
4.41184e-05
4.41273e-05
4.41195e-05
4.41278e-05
4.41294e-05
4.41193e-05
4.41254e-05
4.41179e-05
4.41162e-05
4.41221e-05
2.47896e-05
2.15581e-05
2.07083e-05
2.21069e-05
2.52335e-05
2.93583e-05
3.37411e-05
3.78869e-05
4.15134e-05
4.44638e-05
4.66578e-05
4.80706e-05
4.86974e-05
4.85426e-05
4.76374e-05
4.5982e-05
4.34506e-05
3.98555e-05
3.5193e-05
2.99651e-05
2.81731e-05
3.14174e-05
3.59472e-05
4.04962e-05
4.42567e-05
4.69825e-05
4.88154e-05
4.99678e-05
5.0507e-05
5.04906e-05
5.03003e-05
5.04166e-05
5.08108e-05
5.07402e-05
4.91848e-05
4.57306e-05
4.0481e-05
3.4589e-05
2.98426e-05
2.76612e-05
3.98556e-05
4.25138e-05
4.49872e-05
4.68065e-05
4.79585e-05
4.85692e-05
4.8864e-05
4.89884e-05
4.86981e-05
4.85843e-05
5.04074e-05
5.48921e-05
6.0823e-05