/*--------------------------------*- C++ -*----------------------------------*\
| =========                 |                                                 |
| \\      /  F ield         | OpenFOAM: The Open Source CFD Toolbox           |
|  \\    /   O peration     | Version:  2.4.0                                 |
|   \\  /    A nd           | Web:      www.OpenFOAM.org                      |
|    \\/     M anipulation  |                                                 |
\*---------------------------------------------------------------------------*/
FoamFile
{
    version     2.0;
    format      ascii;
    class       volScalarField;
    location    "120";
    object      nut;
}
// * * * * * * * * * * * * * * * * * * * * * * * * * * * * * * * * * * * * * //

dimensions      [0 2 -1 0 0 0 0];

internalField   nonuniform List<scalar> 
283312
(
2.62177e-06
2.02886e-06
1.67428e-06
1.56825e-06
1.68388e-06
1.97379e-06
2.37825e-06
2.83437e-06
3.29076e-06
3.70917e-06
4.06671e-06
4.35464e-06
4.5697e-06
4.70656e-06
4.76244e-06
4.73421e-06
4.6071e-06
4.35237e-06
3.94067e-06
3.37734e-06
2.72139e-06
2.73134e-06
3.02925e-06
3.46667e-06
3.92429e-06
4.32135e-06
4.62617e-06
4.83775e-06
4.95746e-06
5.00097e-06
5.04058e-06
5.17016e-06
5.41314e-06
5.67973e-06
5.80342e-06
5.69371e-06
5.27842e-06
4.58504e-06
3.78957e-06
3.13432e-06
3.85241e-06
4.02008e-06
4.30772e-06
4.57286e-06
4.76854e-06
4.88861e-06
4.95014e-06
4.97599e-06
4.93978e-06
4.9391e-06
5.28544e-06
6.23108e-06
7.81109e-06
9.8346e-06
1.16405e-05
1.18502e-05
1.00034e-05
7.2342e-06
5.1195e-06
4.13316e-06
4.24903e-06
4.48602e-06
4.66564e-06
4.77281e-06
4.82553e-06
4.84805e-06
4.85994e-06
4.86874e-06
4.82168e-06
5.03308e-06
6.03004e-06
7.69946e-06
9.09438e-06
9.19239e-06
8.13785e-06
6.63181e-06
5.19701e-06
4.2977e-06
3.98724e-06
4.05266e-06
4.5823e-06
4.68754e-06
4.7482e-06
4.77608e-06
4.78822e-06
4.79493e-06
4.80236e-06
4.81151e-06
4.77989e-06
5.62392e-06
8.49544e-06
1.30891e-05
1.71556e-05
1.84208e-05
1.48554e-05
9.33714e-06
5.93854e-06
4.6715e-06
4.3962e-06
4.46187e-06
4.68922e-06
4.72529e-06
4.74229e-06
4.74844e-06
4.75168e-06
4.75548e-06
4.76249e-06
4.77286e-06
4.79798e-06
6.2188e-06
1.0899e-05
1.86707e-05
2.13017e-05
1.65547e-05
1.0726e-05
6.84872e-06
5.17496e-06
4.65994e-06
4.58803e-06
4.63858e-06
4.75287e-06
4.73e-06
4.72633e-06
4.72687e-06
4.7295e-06
4.73344e-06
4.7401e-06
4.74998e-06
4.78741e-06
5.97917e-06
1.13847e-05
3.13688e-05
6.77254e-05
7.72823e-05
4.75608e-05
2.08985e-05
9.94334e-06
6.36071e-06
5.21704e-06
4.86134e-06
4.72724e-06
4.71481e-06
4.71323e-06
4.71372e-06
4.71552e-06
4.7186e-06
4.72397e-06
4.73263e-06
4.74677e-06
4.23446e-06
4.08402e-06
8.8019e-06
2.42262e-05
3.63911e-05
2.7198e-05
1.43955e-05
8.1071e-06
5.79865e-06
5.02874e-06
4.79399e-06
4.70438e-06
4.7038e-06
4.70448e-06
4.70554e-06
4.7073e-06
4.71007e-06
4.71437e-06
4.72202e-06
4.7302e-06
3.89578e-06
2.85072e-06
3.0474e-06
6.19499e-06
1.01581e-05
9.42653e-06
7.02094e-06
5.55968e-06
4.96247e-06
4.76741e-06
4.71602e-06
4.69777e-06
4.69944e-06
4.7001e-06
4.70078e-06
4.70193e-06
4.70401e-06
4.70725e-06
4.71374e-06
4.71904e-06
3.74267e-06
2.61836e-06
2.0717e-06
2.59634e-06
3.8111e-06
4.4697e-06
4.61265e-06
4.6384e-06
4.66198e-06
4.68222e-06
4.69348e-06
4.69527e-06
4.69665e-06
4.69719e-06
4.69781e-06
4.69872e-06
4.70032e-06
4.70268e-06
4.70784e-06
4.71031e-06
3.62225e-06
2.48869e-06
1.85181e-06
1.97283e-06
2.74315e-06
3.58472e-06
4.16487e-06
4.47732e-06
4.61808e-06
4.67224e-06
4.69018e-06
4.69413e-06
4.69517e-06
4.69556e-06
4.69598e-06
4.6966e-06
4.69772e-06
4.69948e-06
4.70344e-06
4.70486e-06
3.53079e-06
2.41874e-06
1.85051e-06
1.97475e-06
2.70207e-06
3.55181e-06
4.16247e-06
4.48685e-06
4.6252e-06
4.67474e-06
4.69001e-06
4.6932e-06
4.69414e-06
4.6945e-06
4.69485e-06
4.6953e-06
4.69607e-06
4.69731e-06
4.70005e-06
4.70037e-06
3.47657e-06
2.33133e-06
1.75567e-06
1.95215e-06
2.73583e-06
3.59631e-06
4.19431e-06
4.50306e-06
4.63122e-06
4.67601e-06
4.68956e-06
4.69268e-06
4.69357e-06
4.69388e-06
4.69413e-06
4.69444e-06
4.69493e-06
4.69579e-06
4.69761e-06
4.69927e-06
3.45965e-06
2.37466e-06
1.85382e-06
2.05281e-06
2.80692e-06
3.63576e-06
4.21328e-06
4.51101e-06
4.63387e-06
4.67646e-06
4.68926e-06
4.69245e-06
4.69321e-06
4.69348e-06
4.69367e-06
4.69391e-06
4.69423e-06
4.69482e-06
4.69597e-06
4.69735e-06
3.41957e-06
2.2579e-06
1.78689e-06
2.09848e-06
2.89894e-06
3.71204e-06
4.25637e-06
4.52988e-06
4.64056e-06
4.6783e-06
4.68948e-06
4.6926e-06
4.69306e-06
4.69323e-06
4.69337e-06
4.69353e-06
4.69372e-06
4.69396e-06
4.69438e-06
4.69412e-06
3.63865e-06
2.37496e-06
1.95668e-06
2.38139e-06
3.2023e-06
3.93671e-06
4.37881e-06
4.58238e-06
4.65915e-06
4.68385e-06
4.69083e-06
4.69292e-06
4.69299e-06
4.69307e-06
4.69317e-06
4.69329e-06
4.69344e-06
4.69362e-06
4.69387e-06
4.69376e-06
4.56935e-06
4.49823e-06
4.53013e-06
4.59283e-06
4.63608e-06
4.656e-06
4.67332e-06
4.68485e-06
4.69026e-06
4.6922e-06
4.69277e-06
4.69285e-06
4.69288e-06
4.69293e-06
4.69301e-06
4.6931e-06
4.69321e-06
4.69332e-06
4.69346e-06
4.69366e-06
4.69056e-06
4.68906e-06
4.69006e-06
4.69162e-06
4.69246e-06
4.69257e-06
4.69269e-06
4.69282e-06
4.69287e-06
4.69286e-06
4.69284e-06
4.69276e-06
4.69279e-06
4.69283e-06
4.69289e-06
4.69297e-06
4.69305e-06
4.69314e-06
4.69322e-06
4.69327e-06
4.69325e-06
4.69317e-06
4.69317e-06
4.69322e-06
4.6932e-06
4.69313e-06
4.69304e-06
4.69295e-06
4.69286e-06
4.6928e-06
4.69277e-06
4.69269e-06
4.69271e-06
4.69274e-06
4.69279e-06
4.69285e-06
4.69292e-06
4.69299e-06
4.69305e-06
4.69311e-06
4.69311e-06
4.69306e-06
4.69302e-06
4.69303e-06
4.69303e-06
4.693e-06
4.69293e-06
4.69285e-06
4.69278e-06
4.69273e-06
4.6927e-06
4.69263e-06
4.69264e-06
4.69267e-06
4.69271e-06
4.69276e-06
4.69281e-06
4.69287e-06
4.69292e-06
4.69295e-06
4.69296e-06
4.69294e-06
4.69292e-06
4.69293e-06
4.69291e-06
4.69287e-06
4.69282e-06
4.69276e-06
4.69271e-06
4.69267e-06
4.69264e-06
4.69258e-06
4.69259e-06
4.69261e-06
4.69264e-06
4.69268e-06
4.69272e-06
4.69277e-06
4.69281e-06
4.69284e-06
4.69286e-06
4.69284e-06
4.69283e-06
4.69282e-06
4.69281e-06
4.69279e-06
4.69275e-06
4.6927e-06
4.69265e-06
4.69261e-06
4.69259e-06
4.69253e-06
4.69253e-06
4.69255e-06
4.69257e-06
4.6926e-06
4.69264e-06
4.69268e-06
4.69272e-06
4.69274e-06
4.69276e-06
4.69276e-06
4.69275e-06
4.69275e-06
4.69274e-06
4.69271e-06
4.69268e-06
4.69264e-06
4.6926e-06
4.69256e-06
4.69254e-06
4.69248e-06
4.69248e-06
4.6925e-06
4.69251e-06
4.69254e-06
4.69257e-06
4.69261e-06
4.69264e-06
4.69266e-06
4.69268e-06
4.69268e-06
4.69268e-06
4.69268e-06
4.69267e-06
4.69265e-06
4.69262e-06
4.69258e-06
4.69255e-06
4.69252e-06
4.6925e-06
4.69244e-06
4.69244e-06
4.69245e-06
4.69246e-06
4.69248e-06
4.69251e-06
4.69254e-06
4.69257e-06
4.69259e-06
4.69261e-06
4.69261e-06
4.69261e-06
4.69261e-06
4.6926e-06
4.69259e-06
4.69256e-06
4.69253e-06
4.6925e-06
4.69247e-06
4.69245e-06
4.6924e-06
4.6924e-06
4.6924e-06
4.69242e-06
4.69243e-06
4.69246e-06
4.69248e-06
4.69251e-06
4.69253e-06
4.69254e-06
4.69255e-06
4.69255e-06
4.69255e-06
4.69255e-06
4.69253e-06
4.69251e-06
4.69249e-06
4.69246e-06
4.69243e-06
4.69242e-06
4.69237e-06
4.69236e-06
4.69237e-06
4.69237e-06
4.69239e-06
4.69241e-06
4.69243e-06
4.69245e-06
4.69247e-06
4.69248e-06
4.69249e-06
4.6925e-06
4.6925e-06
4.6925e-06
4.69249e-06
4.69247e-06
4.69244e-06
4.69242e-06
4.6924e-06
4.69238e-06
4.69233e-06
4.69233e-06
4.69233e-06
4.69234e-06
4.69235e-06
4.69236e-06
4.69238e-06
4.6924e-06
4.69242e-06
4.69243e-06
4.69244e-06
4.69245e-06
4.69245e-06
4.69245e-06
4.69244e-06
4.69242e-06
4.6924e-06
4.69238e-06
4.69236e-06
4.69235e-06
4.6923e-06
4.6923e-06
4.6923e-06
4.6923e-06
4.69231e-06
4.69232e-06
4.69234e-06
4.69236e-06
4.69237e-06
4.69239e-06
4.6924e-06
4.69241e-06
4.69241e-06
4.69241e-06
4.6924e-06
4.69239e-06
4.69237e-06
4.69235e-06
4.69233e-06
4.69232e-06
4.69228e-06
4.69227e-06
4.69227e-06
4.69227e-06
4.69228e-06
4.69229e-06
4.6923e-06
4.69232e-06
4.69233e-06
4.69235e-06
4.69236e-06
4.69237e-06
4.69237e-06
4.69237e-06
4.69236e-06
4.69235e-06
4.69234e-06
4.69232e-06
4.6923e-06
4.69229e-06
4.69225e-06
4.69225e-06
4.69224e-06
4.69225e-06
4.69225e-06
4.69226e-06
4.69227e-06
4.69229e-06
4.6923e-06
4.69231e-06
4.69232e-06
4.69233e-06
4.69234e-06
4.69234e-06
4.69233e-06
4.69232e-06
4.69231e-06
4.69229e-06
4.69228e-06
4.69227e-06
4.69223e-06
4.69223e-06
4.69222e-06
4.69222e-06
4.69223e-06
4.69223e-06
4.69224e-06
4.69226e-06
4.69227e-06
4.69228e-06
4.69229e-06
4.6923e-06
4.69231e-06
4.69231e-06
4.6923e-06
4.6923e-06
4.69228e-06
4.69227e-06
4.69226e-06
4.69224e-06
4.69221e-06
4.69221e-06
4.6922e-06
4.6922e-06
4.6922e-06
4.69221e-06
4.69222e-06
4.69223e-06
4.69224e-06
4.69226e-06
4.69227e-06
4.69227e-06
4.69228e-06
4.69228e-06
4.69228e-06
4.69227e-06
4.69226e-06
4.69225e-06
4.69224e-06
4.69222e-06
4.6922e-06
4.69219e-06
4.69219e-06
4.69218e-06
4.69219e-06
4.69219e-06
4.6922e-06
4.69221e-06
4.69222e-06
4.69223e-06
4.69224e-06
4.69225e-06
4.69226e-06
4.69226e-06
4.69226e-06
4.69225e-06
4.69224e-06
4.69223e-06
4.69222e-06
4.69221e-06
4.69218e-06
4.69218e-06
4.69217e-06
4.69217e-06
4.69217e-06
4.69218e-06
4.69218e-06
4.69219e-06
4.6922e-06
4.69221e-06
4.69222e-06
4.69223e-06
4.69224e-06
4.69224e-06
4.69224e-06
4.69224e-06
4.69223e-06
4.69222e-06
4.6922e-06
4.69219e-06
4.69217e-06
4.69217e-06
4.69216e-06
4.69216e-06
4.69216e-06
4.69216e-06
4.69217e-06
4.69218e-06
4.69219e-06
4.6922e-06
4.69221e-06
4.69222e-06
4.69222e-06
4.69223e-06
4.69223e-06
4.69222e-06
4.69221e-06
4.6922e-06
4.69219e-06
4.69218e-06
4.69216e-06
4.69216e-06
4.69215e-06
4.69215e-06
4.69215e-06
4.69215e-06
4.69216e-06
4.69217e-06
4.69218e-06
4.69219e-06
4.6922e-06
4.6922e-06
4.69221e-06
4.69221e-06
4.69221e-06
4.69221e-06
4.6922e-06
4.69219e-06
4.69218e-06
4.69217e-06
4.69216e-06
4.69215e-06
4.69215e-06
4.69214e-06
4.69214e-06
4.69215e-06
4.69215e-06
4.69216e-06
4.69217e-06
4.69218e-06
4.69219e-06
4.6922e-06
4.6922e-06
4.69221e-06
4.69221e-06
4.6922e-06
4.6922e-06
4.69219e-06
4.69218e-06
4.69217e-06
4.69217e-06
4.69216e-06
4.69215e-06
4.69215e-06
4.69215e-06
4.69215e-06
4.69216e-06
4.69217e-06
4.69217e-06
4.69218e-06
4.69219e-06
4.6922e-06
4.69221e-06
4.69221e-06
4.69221e-06
4.69221e-06
4.6922e-06
4.69219e-06
4.69218e-06
4.69218e-06
4.69436e-06
4.6947e-06
4.6943e-06
4.69424e-06
4.69474e-06
4.69436e-06
4.69429e-06
4.69491e-06
4.69444e-06
4.69502e-06
4.69447e-06
4.69509e-06
4.6945e-06
4.6951e-06
4.69524e-06
4.69448e-06
4.69495e-06
4.6944e-06
4.6943e-06
4.69479e-06
2.64698e-06
2.08282e-06
1.76867e-06
1.70739e-06
1.86429e-06
2.18562e-06
2.60275e-06
3.05428e-06
3.4926e-06
3.88371e-06
4.20914e-06
4.46441e-06
4.64939e-06
4.76052e-06
4.79537e-06
4.75314e-06
4.61775e-06
4.35783e-06
3.94267e-06
3.38122e-06
2.78717e-06
2.84256e-06
3.16671e-06
3.60702e-06
4.04786e-06
4.41717e-06
4.69471e-06
4.88292e-06
4.98124e-06
5.0022e-06
5.02282e-06
5.14615e-06
5.39877e-06
5.68317e-06
5.82028e-06
5.71158e-06
5.28197e-06
4.5707e-06
3.77395e-06
3.14564e-06
3.94529e-06
4.10782e-06
4.37959e-06
4.62469e-06
4.8012e-06
4.90591e-06
4.9585e-06
4.97932e-06
4.93083e-06
4.91065e-06
5.25623e-06
6.24498e-06
7.92951e-06
1.01178e-05
1.20689e-05
1.22735e-05
1.02699e-05
7.34942e-06
5.19001e-06
4.21136e-06
4.31276e-06
4.53337e-06
4.69603e-06
4.79019e-06
4.83498e-06
4.85388e-06
4.86452e-06
4.8729e-06
4.81746e-06
5.02205e-06
6.04134e-06
7.74352e-06
9.13447e-06
9.18613e-06
8.11643e-06
6.61929e-06
5.21024e-06
4.34252e-06
4.05218e-06
4.12178e-06
4.61564e-06
4.70904e-06
4.76109e-06
4.78422e-06
4.79434e-06
4.80034e-06
4.80768e-06
4.81679e-06
4.77666e-06
5.64624e-06
8.63123e-06
1.33265e-05
1.73711e-05
1.8461e-05
1.46617e-05
9.15853e-06
5.88363e-06
4.6889e-06
4.43803e-06
4.50343e-06
4.70703e-06
4.73701e-06
4.75053e-06
4.75518e-06
4.75803e-06
4.76176e-06
4.76884e-06
4.77925e-06
4.80327e-06
6.3223e-06
1.13381e-05
1.93376e-05
2.15105e-05
1.64605e-05
1.05565e-05
6.76099e-06
5.16171e-06
4.68048e-06
4.61625e-06
4.66242e-06
4.76394e-06
4.73878e-06
4.73389e-06
4.73393e-06
4.73642e-06
4.74029e-06
4.74695e-06
4.75682e-06
4.79512e-06
6.09861e-06
1.20836e-05
3.33105e-05
6.93775e-05
7.67546e-05
4.67382e-05
2.06141e-05
9.89033e-06
6.36299e-06
5.22964e-06
4.87371e-06
4.73639e-06
4.72283e-06
4.72067e-06
4.72097e-06
4.72274e-06
4.72582e-06
4.73119e-06
4.73984e-06
4.75441e-06
4.22562e-06
4.16149e-06
9.39077e-06
2.55267e-05
3.72711e-05
2.73409e-05
1.43861e-05
8.10229e-06
5.80388e-06
5.03798e-06
4.80353e-06
4.71292e-06
4.71161e-06
4.71201e-06
4.713e-06
4.71474e-06
4.71749e-06
4.72177e-06
4.72941e-06
4.73746e-06
3.86452e-06
2.81217e-06
3.10167e-06
6.52183e-06
1.05076e-05
9.56183e-06
7.05875e-06
5.57635e-06
4.97553e-06
4.77869e-06
4.72556e-06
4.70583e-06
4.70711e-06
4.70767e-06
4.70834e-06
4.70949e-06
4.71157e-06
4.7148e-06
4.72128e-06
4.7264e-06
3.70837e-06
2.57866e-06
2.06022e-06
2.6515e-06
3.89652e-06
4.52998e-06
4.64948e-06
4.66229e-06
4.67814e-06
4.69371e-06
4.70253e-06
4.70316e-06
4.70434e-06
4.70483e-06
4.70545e-06
4.70636e-06
4.70796e-06
4.7103e-06
4.71545e-06
4.7177e-06
3.58571e-06
2.45197e-06
1.83369e-06
1.98687e-06
2.78351e-06
3.62946e-06
4.20037e-06
4.50105e-06
4.63322e-06
4.68277e-06
4.69874e-06
4.70196e-06
4.70288e-06
4.70324e-06
4.70366e-06
4.70428e-06
4.7054e-06
4.70715e-06
4.71111e-06
4.71233e-06
3.49161e-06
2.38523e-06
1.83586e-06
1.98518e-06
2.73635e-06
3.59274e-06
4.19526e-06
4.50835e-06
4.63889e-06
4.68457e-06
4.69833e-06
4.70104e-06
4.70188e-06
4.70221e-06
4.70256e-06
4.70302e-06
4.70378e-06
4.70502e-06
4.70776e-06
4.70789e-06
3.43692e-06
2.29721e-06
1.74094e-06
1.96355e-06
2.7699e-06
3.63578e-06
4.22529e-06
4.52321e-06
4.64421e-06
4.68557e-06
4.69782e-06
4.70053e-06
4.70131e-06
4.7016e-06
4.70185e-06
4.70217e-06
4.70266e-06
4.70352e-06
4.70533e-06
4.70689e-06
3.4205e-06
2.34551e-06
1.84249e-06
2.06469e-06
2.83994e-06
3.67398e-06
4.24335e-06
4.53062e-06
4.6466e-06
4.68592e-06
4.69749e-06
4.70029e-06
4.70097e-06
4.70121e-06
4.70141e-06
4.70164e-06
4.70196e-06
4.70255e-06
4.7037e-06
4.70503e-06
3.37884e-06
2.22518e-06
1.77613e-06
2.11316e-06
2.93342e-06
3.74973e-06
4.2852e-06
4.54854e-06
4.65279e-06
4.68757e-06
4.69767e-06
4.7004e-06
4.70081e-06
4.70097e-06
4.70111e-06
4.70127e-06
4.70146e-06
4.70171e-06
4.70213e-06
4.70187e-06
3.60274e-06
2.32972e-06
1.94087e-06
2.40036e-06
3.24086e-06
3.9735e-06
4.40443e-06
4.59847e-06
4.67006e-06
4.69261e-06
4.69884e-06
4.70065e-06
4.70073e-06
4.7008e-06
4.70091e-06
4.70103e-06
4.70118e-06
4.70136e-06
4.70161e-06
4.70149e-06
4.572e-06
4.5032e-06
4.53943e-06
4.60345e-06
4.6458e-06
4.66537e-06
4.68232e-06
4.69328e-06
4.69828e-06
4.70002e-06
4.70052e-06
4.70058e-06
4.70061e-06
4.70067e-06
4.70075e-06
4.70084e-06
4.70095e-06
4.70106e-06
4.70121e-06
4.7014e-06
4.6982e-06
4.69678e-06
4.69788e-06
4.69944e-06
4.70023e-06
4.70034e-06
4.70046e-06
4.70057e-06
4.7006e-06
4.70059e-06
4.70057e-06
4.7005e-06
4.70052e-06
4.70057e-06
4.70063e-06
4.70071e-06
4.70079e-06
4.70088e-06
4.70096e-06
4.70101e-06
4.70099e-06
4.70091e-06
4.70091e-06
4.70096e-06
4.70093e-06
4.70086e-06
4.70077e-06
4.70067e-06
4.70059e-06
4.70053e-06
4.7005e-06
4.70043e-06
4.70045e-06
4.70048e-06
4.70053e-06
4.70059e-06
4.70066e-06
4.70073e-06
4.7008e-06
4.70085e-06
4.70085e-06
4.7008e-06
4.70076e-06
4.70076e-06
4.70076e-06
4.70073e-06
4.70066e-06
4.70057e-06
4.70051e-06
4.70046e-06
4.70043e-06
4.70037e-06
4.70038e-06
4.70041e-06
4.70045e-06
4.7005e-06
4.70055e-06
4.70061e-06
4.70066e-06
4.70069e-06
4.7007e-06
4.70068e-06
4.70066e-06
4.70066e-06
4.70064e-06
4.70061e-06
4.70055e-06
4.70049e-06
4.70044e-06
4.7004e-06
4.70037e-06
4.70031e-06
4.70032e-06
4.70034e-06
4.70038e-06
4.70042e-06
4.70046e-06
4.70051e-06
4.70055e-06
4.70059e-06
4.7006e-06
4.70058e-06
4.70056e-06
4.70056e-06
4.70055e-06
4.70052e-06
4.70048e-06
4.70043e-06
4.70038e-06
4.70034e-06
4.70032e-06
4.70026e-06
4.70027e-06
4.70028e-06
4.70031e-06
4.70034e-06
4.70038e-06
4.70042e-06
4.70046e-06
4.70048e-06
4.7005e-06
4.70049e-06
4.70049e-06
4.70049e-06
4.70047e-06
4.70045e-06
4.70041e-06
4.70037e-06
4.70033e-06
4.7003e-06
4.70027e-06
4.70022e-06
4.70022e-06
4.70023e-06
4.70025e-06
4.70028e-06
4.70031e-06
4.70035e-06
4.70038e-06
4.7004e-06
4.70042e-06
4.70042e-06
4.70042e-06
4.70041e-06
4.7004e-06
4.70038e-06
4.70035e-06
4.70031e-06
4.70028e-06
4.70025e-06
4.70023e-06
4.70018e-06
4.70018e-06
4.70018e-06
4.7002e-06
4.70022e-06
4.70025e-06
4.70028e-06
4.70031e-06
4.70033e-06
4.70034e-06
4.70035e-06
4.70035e-06
4.70035e-06
4.70034e-06
4.70032e-06
4.70029e-06
4.70026e-06
4.70023e-06
4.70021e-06
4.70019e-06
4.70014e-06
4.70013e-06
4.70014e-06
4.70015e-06
4.70017e-06
4.70019e-06
4.70022e-06
4.70024e-06
4.70026e-06
4.70028e-06
4.70029e-06
4.70029e-06
4.70029e-06
4.70028e-06
4.70027e-06
4.70025e-06
4.70022e-06
4.70019e-06
4.70017e-06
4.70015e-06
4.7001e-06
4.7001e-06
4.7001e-06
4.70011e-06
4.70012e-06
4.70014e-06
4.70017e-06
4.70019e-06
4.70021e-06
4.70022e-06
4.70023e-06
4.70024e-06
4.70024e-06
4.70023e-06
4.70022e-06
4.7002e-06
4.70018e-06
4.70015e-06
4.70013e-06
4.70011e-06
4.70007e-06
4.70006e-06
4.70006e-06
4.70007e-06
4.70008e-06
4.7001e-06
4.70012e-06
4.70014e-06
4.70016e-06
4.70017e-06
4.70018e-06
4.70019e-06
4.70019e-06
4.70018e-06
4.70017e-06
4.70016e-06
4.70014e-06
4.70012e-06
4.7001e-06
4.70008e-06
4.70004e-06
4.70003e-06
4.70003e-06
4.70004e-06
4.70005e-06
4.70006e-06
4.70008e-06
4.70009e-06
4.70011e-06
4.70013e-06
4.70014e-06
4.70014e-06
4.70015e-06
4.70014e-06
4.70013e-06
4.70012e-06
4.7001e-06
4.70008e-06
4.70007e-06
4.70005e-06
4.70001e-06
4.70001e-06
4.7e-06
4.70001e-06
4.70001e-06
4.70003e-06
4.70004e-06
4.70006e-06
4.70007e-06
4.70009e-06
4.7001e-06
4.7001e-06
4.70011e-06
4.70011e-06
4.7001e-06
4.70009e-06
4.70007e-06
4.70005e-06
4.70004e-06
4.70002e-06
4.69999e-06
4.69998e-06
4.69998e-06
4.69998e-06
4.69999e-06
4.7e-06
4.70001e-06
4.70002e-06
4.70004e-06
4.70005e-06
4.70006e-06
4.70007e-06
4.70007e-06
4.70007e-06
4.70007e-06
4.70006e-06
4.70004e-06
4.70003e-06
4.70001e-06
4.7e-06
4.69997e-06
4.69996e-06
4.69996e-06
4.69996e-06
4.69996e-06
4.69997e-06
4.69998e-06
4.69999e-06
4.70001e-06
4.70002e-06
4.70003e-06
4.70004e-06
4.70004e-06
4.70004e-06
4.70004e-06
4.70003e-06
4.70002e-06
4.7e-06
4.69999e-06
4.69998e-06
4.69995e-06
4.69994e-06
4.69994e-06
4.69994e-06
4.69994e-06
4.69995e-06
4.69996e-06
4.69997e-06
4.69998e-06
4.69999e-06
4.7e-06
4.70001e-06
4.70002e-06
4.70002e-06
4.70001e-06
4.70001e-06
4.7e-06
4.69998e-06
4.69997e-06
4.69996e-06
4.69993e-06
4.69992e-06
4.69992e-06
4.69992e-06
4.69992e-06
4.69993e-06
4.69994e-06
4.69995e-06
4.69996e-06
4.69997e-06
4.69998e-06
4.69999e-06
4.69999e-06
4.7e-06
4.69999e-06
4.69999e-06
4.69998e-06
4.69997e-06
4.69995e-06
4.69994e-06
4.69992e-06
4.69991e-06
4.69991e-06
4.6999e-06
4.69991e-06
4.69991e-06
4.69992e-06
4.69993e-06
4.69994e-06
4.69995e-06
4.69996e-06
4.69997e-06
4.69997e-06
4.69998e-06
4.69997e-06
4.69997e-06
4.69996e-06
4.69995e-06
4.69994e-06
4.69993e-06
4.69991e-06
4.6999e-06
4.6999e-06
4.69989e-06
4.69989e-06
4.6999e-06
4.6999e-06
4.69991e-06
4.69992e-06
4.69993e-06
4.69994e-06
4.69995e-06
4.69996e-06
4.69996e-06
4.69996e-06
4.69996e-06
4.69995e-06
4.69994e-06
4.69993e-06
4.69992e-06
4.6999e-06
4.69989e-06
4.69989e-06
4.69988e-06
4.69988e-06
4.69989e-06
4.69989e-06
4.6999e-06
4.69991e-06
4.69992e-06
4.69993e-06
4.69994e-06
4.69995e-06
4.69995e-06
4.69995e-06
4.69994e-06
4.69994e-06
4.69993e-06
4.69992e-06
4.69991e-06
4.69989e-06
4.69989e-06
4.69988e-06
4.69988e-06
4.69988e-06
4.69988e-06
4.69988e-06
4.69989e-06
4.6999e-06
4.69991e-06
4.69992e-06
4.69993e-06
4.69994e-06
4.69994e-06
4.69994e-06
4.69994e-06
4.69993e-06
4.69992e-06
4.69991e-06
4.6999e-06
4.6999e-06
4.69989e-06
4.69989e-06
4.69988e-06
4.69988e-06
4.69989e-06
4.69989e-06
4.6999e-06
4.69991e-06
4.69992e-06
4.69993e-06
4.69994e-06
4.69994e-06
4.69995e-06
4.69995e-06
4.69994e-06
4.69994e-06
4.69993e-06
4.69992e-06
4.69991e-06
4.70202e-06
4.70232e-06
4.70196e-06
4.70191e-06
4.70236e-06
4.70202e-06
4.70195e-06
4.70253e-06
4.70209e-06
4.70263e-06
4.70212e-06
4.7027e-06
4.70215e-06
4.7027e-06
4.70282e-06
4.70212e-06
4.70255e-06
4.70205e-06
4.70196e-06
4.70241e-06
2.66303e-06
2.13329e-06
1.86443e-06
1.85054e-06
2.04848e-06
2.39652e-06
2.82173e-06
3.26515e-06
3.68312e-06
4.04574e-06
4.33856e-06
4.56107e-06
4.71607e-06
4.80162e-06
4.81617e-06
4.75999e-06
4.61559e-06
4.34901e-06
3.9292e-06
3.37042e-06
2.84984e-06
2.94973e-06
3.29662e-06
3.7367e-06
4.15947e-06
4.50338e-06
4.75583e-06
4.92256e-06
5.00044e-06
4.99809e-06
4.99758e-06
5.11218e-06
5.37182e-06
5.67075e-06
5.81707e-06
5.70683e-06
5.26206e-06
4.53581e-06
3.74424e-06
3.15001e-06
4.02817e-06
4.18736e-06
4.4445e-06
4.67092e-06
4.82977e-06
4.92079e-06
4.96566e-06
4.98211e-06
4.92e-06
4.87567e-06
5.21362e-06
6.23665e-06
8.01516e-06
1.03559e-05
1.24322e-05
1.26135e-05
1.04554e-05
7.41073e-06
5.23344e-06
4.27511e-06
4.37061e-06
4.57601e-06
4.72309e-06
4.80557e-06
4.84351e-06
4.85942e-06
4.8691e-06
4.87717e-06
4.81249e-06
5.00478e-06
6.03424e-06
7.74856e-06
9.11399e-06
9.11458e-06
8.045e-06
6.57467e-06
5.20533e-06
4.37646e-06
4.10925e-06
4.18439e-06
4.64531e-06
4.72819e-06
4.77275e-06
4.79188e-06
4.80038e-06
4.80584e-06
4.81315e-06
4.82224e-06
4.77252e-06
5.65777e-06
8.72663e-06
1.34602e-05
1.74174e-05
1.83058e-05
1.43342e-05
8.92734e-06
5.81057e-06
4.6977e-06
4.47407e-06
4.54047e-06
4.72283e-06
4.74773e-06
4.75842e-06
4.7619e-06
4.76448e-06
4.76818e-06
4.77534e-06
4.78578e-06
4.80819e-06
6.41963e-06
1.17426e-05
1.9855e-05
2.15071e-05
1.62252e-05
1.03247e-05
6.65146e-06
5.13936e-06
4.69564e-06
4.64052e-06
4.68338e-06
4.77363e-06
4.74706e-06
4.74135e-06
4.74107e-06
4.74347e-06
4.74729e-06
4.75395e-06
4.76381e-06
4.80259e-06
6.21713e-06
1.27785e-05
3.49779e-05
7.00865e-05
7.53004e-05
4.54949e-05
2.01988e-05
9.79639e-06
6.35027e-06
5.23585e-06
4.88318e-06
4.74488e-06
4.73069e-06
4.72817e-06
4.72835e-06
4.73012e-06
4.73319e-06
4.73856e-06
4.74719e-06
4.76215e-06
4.21663e-06
4.24902e-06
9.98042e-06
2.66426e-05
3.77903e-05
2.72652e-05
1.42955e-05
8.06967e-06
5.79888e-06
5.04315e-06
4.81142e-06
4.72127e-06
4.71946e-06
4.71967e-06
4.72061e-06
4.72233e-06
4.72507e-06
4.72932e-06
4.73695e-06
4.74485e-06
3.83154e-06
2.77336e-06
3.15787e-06
6.83633e-06
1.08007e-05
9.65063e-06
7.0744e-06
5.58373e-06
4.98467e-06
4.78831e-06
4.73447e-06
4.71393e-06
4.7149e-06
4.71538e-06
4.71605e-06
4.71721e-06
4.71929e-06
4.72249e-06
4.72897e-06
4.7339e-06
3.67246e-06
2.53882e-06
2.04974e-06
2.7067e-06
3.97577e-06
4.58313e-06
4.68168e-06
4.68362e-06
4.69299e-06
4.70463e-06
4.71142e-06
4.71116e-06
4.71217e-06
4.71263e-06
4.71324e-06
4.71415e-06
4.71575e-06
4.71807e-06
4.72322e-06
4.72524e-06
3.54771e-06
2.41546e-06
1.81642e-06
2.00188e-06
2.82396e-06
3.67349e-06
4.23486e-06
4.52393e-06
4.64787e-06
4.69314e-06
4.70734e-06
4.70993e-06
4.71073e-06
4.71108e-06
4.7115e-06
4.71212e-06
4.71324e-06
4.71498e-06
4.71894e-06
4.71994e-06
3.45095e-06
2.35229e-06
1.82203e-06
1.99664e-06
2.77162e-06
3.63399e-06
4.22777e-06
4.52945e-06
4.65236e-06
4.69438e-06
4.70674e-06
4.70902e-06
4.70976e-06
4.71008e-06
4.71042e-06
4.71088e-06
4.71165e-06
4.71288e-06
4.71561e-06
4.71557e-06
3.39589e-06
2.26363e-06
1.72702e-06
1.97598e-06
2.80503e-06
3.67569e-06
4.25613e-06
4.54308e-06
4.65704e-06
4.69514e-06
4.70618e-06
4.70852e-06
4.70921e-06
4.70948e-06
4.70973e-06
4.71005e-06
4.71054e-06
4.7114e-06
4.71321e-06
4.71466e-06
3.38008e-06
2.31713e-06
1.83188e-06
2.07751e-06
2.87399e-06
3.71268e-06
4.27331e-06
4.54999e-06
4.6592e-06
4.69541e-06
4.70584e-06
4.70828e-06
4.70887e-06
4.7091e-06
4.7093e-06
4.70953e-06
4.70985e-06
4.71044e-06
4.71159e-06
4.71285e-06
3.33677e-06
2.19311e-06
1.76621e-06
2.12884e-06
2.96891e-06
3.78782e-06
4.31391e-06
4.56696e-06
4.66492e-06
4.69688e-06
4.70596e-06
4.70835e-06
4.7087e-06
4.70886e-06
4.709e-06
4.70916e-06
4.70935e-06
4.7096e-06
4.71003e-06
4.70979e-06
3.56534e-06
2.28427e-06
1.92618e-06
2.42091e-06
3.28051e-06
4.01045e-06
4.42977e-06
4.61434e-06
4.68092e-06
4.70143e-06
4.70698e-06
4.70855e-06
4.70862e-06
4.7087e-06
4.7088e-06
4.70893e-06
4.70908e-06
4.70926e-06
4.70951e-06
4.70938e-06
4.5746e-06
4.50843e-06
4.54907e-06
4.61428e-06
4.65563e-06
4.67489e-06
4.69145e-06
4.70183e-06
4.70643e-06
4.70799e-06
4.70843e-06
4.70847e-06
4.7085e-06
4.70856e-06
4.70865e-06
4.70874e-06
4.70885e-06
4.70896e-06
4.70911e-06
4.7093e-06
4.70598e-06
4.70466e-06
4.70585e-06
4.70742e-06
4.70816e-06
4.70826e-06
4.70837e-06
4.70847e-06
4.70849e-06
4.70847e-06
4.70846e-06
4.70839e-06
4.70841e-06
4.70846e-06
4.70853e-06
4.7086e-06
4.70869e-06
4.70878e-06
4.70886e-06
4.70891e-06
4.70889e-06
4.7088e-06
4.7088e-06
4.70885e-06
4.70882e-06
4.70874e-06
4.70865e-06
4.70855e-06
4.70847e-06
4.70841e-06
4.70839e-06
4.70832e-06
4.70834e-06
4.70837e-06
4.70843e-06
4.70849e-06
4.70856e-06
4.70863e-06
4.70869e-06
4.70875e-06
4.70875e-06
4.70869e-06
4.70865e-06
4.70866e-06
4.70865e-06
4.70861e-06
4.70854e-06
4.70846e-06
4.70839e-06
4.70834e-06
4.70832e-06
4.70826e-06
4.70827e-06
4.7083e-06
4.70834e-06
4.70839e-06
4.70845e-06
4.70851e-06
4.70855e-06
4.70859e-06
4.7086e-06
4.70857e-06
4.70856e-06
4.70856e-06
4.70853e-06
4.70849e-06
4.70844e-06
4.70838e-06
4.70832e-06
4.70828e-06
4.70826e-06
4.7082e-06
4.70821e-06
4.70824e-06
4.70827e-06
4.70831e-06
4.70836e-06
4.7084e-06
4.70845e-06
4.70848e-06
4.70849e-06
4.70848e-06
4.70846e-06
4.70845e-06
4.70844e-06
4.70841e-06
4.70836e-06
4.70831e-06
4.70827e-06
4.70823e-06
4.70821e-06
4.70815e-06
4.70816e-06
4.70818e-06
4.7082e-06
4.70824e-06
4.70828e-06
4.70832e-06
4.70835e-06
4.70838e-06
4.70839e-06
4.70839e-06
4.70838e-06
4.70838e-06
4.70836e-06
4.70834e-06
4.7083e-06
4.70826e-06
4.70822e-06
4.70818e-06
4.70816e-06
4.70811e-06
4.70811e-06
4.70812e-06
4.70815e-06
4.70817e-06
4.70821e-06
4.70824e-06
4.70827e-06
4.7083e-06
4.70831e-06
4.70831e-06
4.70831e-06
4.7083e-06
4.70829e-06
4.70827e-06
4.70824e-06
4.7082e-06
4.70817e-06
4.70814e-06
4.70812e-06
4.70807e-06
4.70807e-06
4.70808e-06
4.70809e-06
4.70812e-06
4.70814e-06
4.70817e-06
4.7082e-06
4.70822e-06
4.70824e-06
4.70824e-06
4.70824e-06
4.70824e-06
4.70823e-06
4.70821e-06
4.70818e-06
4.70815e-06
4.70812e-06
4.7081e-06
4.70808e-06
4.70803e-06
4.70803e-06
4.70803e-06
4.70805e-06
4.70806e-06
4.70809e-06
4.70811e-06
4.70814e-06
4.70816e-06
4.70817e-06
4.70818e-06
4.70818e-06
4.70818e-06
4.70817e-06
4.70816e-06
4.70813e-06
4.70811e-06
4.70808e-06
4.70806e-06
4.70804e-06
4.70799e-06
4.70799e-06
4.70799e-06
4.708e-06
4.70802e-06
4.70804e-06
4.70806e-06
4.70808e-06
4.7081e-06
4.70812e-06
4.70812e-06
4.70813e-06
4.70813e-06
4.70812e-06
4.70811e-06
4.70809e-06
4.70807e-06
4.70804e-06
4.70802e-06
4.708e-06
4.70796e-06
4.70795e-06
4.70796e-06
4.70796e-06
4.70798e-06
4.70799e-06
4.70801e-06
4.70803e-06
4.70805e-06
4.70806e-06
4.70807e-06
4.70808e-06
4.70808e-06
4.70808e-06
4.70807e-06
4.70805e-06
4.70803e-06
4.70801e-06
4.70799e-06
4.70797e-06
4.70793e-06
4.70792e-06
4.70792e-06
4.70793e-06
4.70794e-06
4.70795e-06
4.70797e-06
4.70799e-06
4.708e-06
4.70802e-06
4.70803e-06
4.70803e-06
4.70804e-06
4.70803e-06
4.70803e-06
4.70801e-06
4.70799e-06
4.70797e-06
4.70795e-06
4.70794e-06
4.7079e-06
4.7079e-06
4.7079e-06
4.7079e-06
4.70791e-06
4.70792e-06
4.70793e-06
4.70795e-06
4.70796e-06
4.70798e-06
4.70799e-06
4.70799e-06
4.708e-06
4.708e-06
4.70799e-06
4.70798e-06
4.70796e-06
4.70794e-06
4.70793e-06
4.70791e-06
4.70788e-06
4.70787e-06
4.70787e-06
4.70787e-06
4.70788e-06
4.70789e-06
4.7079e-06
4.70792e-06
4.70793e-06
4.70794e-06
4.70795e-06
4.70796e-06
4.70796e-06
4.70796e-06
4.70796e-06
4.70795e-06
4.70793e-06
4.70792e-06
4.7079e-06
4.70789e-06
4.70786e-06
4.70785e-06
4.70785e-06
4.70785e-06
4.70785e-06
4.70786e-06
4.70787e-06
4.70789e-06
4.7079e-06
4.70791e-06
4.70792e-06
4.70793e-06
4.70793e-06
4.70793e-06
4.70793e-06
4.70792e-06
4.70791e-06
4.70789e-06
4.70788e-06
4.70787e-06
4.70784e-06
4.70783e-06
4.70783e-06
4.70783e-06
4.70783e-06
4.70784e-06
4.70785e-06
4.70786e-06
4.70787e-06
4.70788e-06
4.70789e-06
4.7079e-06
4.70791e-06
4.70791e-06
4.7079e-06
4.7079e-06
4.70789e-06
4.70787e-06
4.70786e-06
4.70785e-06
4.70782e-06
4.70781e-06
4.70781e-06
4.70781e-06
4.70781e-06
4.70782e-06
4.70783e-06
4.70784e-06
4.70785e-06
4.70786e-06
4.70787e-06
4.70788e-06
4.70788e-06
4.70789e-06
4.70788e-06
4.70788e-06
4.70787e-06
4.70786e-06
4.70784e-06
4.70783e-06
4.70781e-06
4.7078e-06
4.7078e-06
4.7078e-06
4.7078e-06
4.7078e-06
4.70781e-06
4.70782e-06
4.70783e-06
4.70784e-06
4.70785e-06
4.70786e-06
4.70786e-06
4.70787e-06
4.70787e-06
4.70786e-06
4.70785e-06
4.70784e-06
4.70783e-06
4.70782e-06
4.7078e-06
4.70779e-06
4.70779e-06
4.70778e-06
4.70778e-06
4.70779e-06
4.7078e-06
4.70781e-06
4.70782e-06
4.70783e-06
4.70784e-06
4.70784e-06
4.70785e-06
4.70785e-06
4.70785e-06
4.70785e-06
4.70784e-06
4.70783e-06
4.70782e-06
4.70781e-06
4.70779e-06
4.70778e-06
4.70778e-06
4.70777e-06
4.70777e-06
4.70778e-06
4.70778e-06
4.70779e-06
4.7078e-06
4.70781e-06
4.70782e-06
4.70783e-06
4.70784e-06
4.70784e-06
4.70784e-06
4.70783e-06
4.70783e-06
4.70782e-06
4.70781e-06
4.7078e-06
4.70778e-06
4.70778e-06
4.70777e-06
4.70777e-06
4.70777e-06
4.70777e-06
4.70778e-06
4.70779e-06
4.70779e-06
4.70781e-06
4.70781e-06
4.70782e-06
4.70783e-06
4.70783e-06
4.70783e-06
4.70783e-06
4.70782e-06
4.70781e-06
4.7078e-06
4.70779e-06
4.70779e-06
4.70778e-06
4.70778e-06
4.70777e-06
4.70777e-06
4.70778e-06
4.70778e-06
4.70779e-06
4.7078e-06
4.70781e-06
4.70782e-06
4.70783e-06
4.70783e-06
4.70784e-06
4.70784e-06
4.70783e-06
4.70782e-06
4.70782e-06
4.70781e-06
4.7078e-06
4.70983e-06
4.71009e-06
4.70977e-06
4.70974e-06
4.71014e-06
4.70983e-06
4.70978e-06
4.7103e-06
4.70991e-06
4.7104e-06
4.70993e-06
4.71047e-06
4.70996e-06
4.71047e-06
4.71057e-06
4.70992e-06
4.71032e-06
4.70986e-06
4.70979e-06
4.71019e-06
2.66764e-06
2.17833e-06
1.9596e-06
1.99531e-06
2.23334e-06
2.60377e-06
3.03309e-06
3.46539e-06
3.86121e-06
4.19451e-06
4.4545e-06
4.64429e-06
4.76944e-06
4.82956e-06
4.82417e-06
4.75378e-06
4.59914e-06
4.32391e-06
3.89793e-06
3.34266e-06
2.90982e-06
3.05319e-06
3.41969e-06
3.8569e-06
4.26075e-06
4.58084e-06
4.80996e-06
4.957e-06
5.01524e-06
4.98844e-06
4.96425e-06
5.06715e-06
5.33059e-06
5.64021e-06
5.79174e-06
5.67768e-06
5.21745e-06
4.47999e-06
3.70088e-06
3.14818e-06
4.10219e-06
4.25964e-06
4.5032e-06
4.71217e-06
4.85473e-06
4.93366e-06
4.97189e-06
4.98451e-06
4.90717e-06
4.83339e-06
5.15595e-06
6.2029e-06