/*--------------------------------*- C++ -*----------------------------------*\
| =========                 |                                                 |
| \\      /  F ield         | OpenFOAM: The Open Source CFD Toolbox           |
|  \\    /   O peration     | Version:  2.4.0                                 |
|   \\  /    A nd           | Web:      www.OpenFOAM.org                      |
|    \\/     M anipulation  |                                                 |
\*---------------------------------------------------------------------------*/
FoamFile
{
    version     2.0;
    format      ascii;
    class       volScalarField;
    location    "120";
    object      p;
}
// * * * * * * * * * * * * * * * * * * * * * * * * * * * * * * * * * * * * * //

dimensions      [0 2 -2 0 0 0 0];

internalField   nonuniform List<scalar> 
283312
(
-0.00619476
-0.00626458
-0.00651609
-0.00686619
-0.0072249
-0.00752239
-0.00775165
-0.00790876
-0.0080277
-0.00813323
-0.00824634
-0.00835405
-0.00842425
-0.0084007
-0.00824835
-0.00797357
-0.00758844
-0.0071303
-0.00668192
-0.00634367
0.00213063
0.00162269
0.00119466
0.000926622
0.000830482
0.000899985
0.0010471
0.00119215
0.00130692
0.00139903
0.00147083
0.00155336
0.0016833
0.00188318
0.00216558
0.00253092
0.00284319
0.00299065
0.00290988
0.00259997
-0.00229513
-0.00214123
-0.00191545
-0.00167364
-0.00148042
-0.00138253
-0.0013635
-0.00136893
-0.00141666
-0.00145589
-0.00148286
-0.00145967
-0.0013903
-0.0012975
-0.00125773
-0.00137052
-0.00161505
-0.0019091
-0.0021691
-0.00230916
0.00146403
0.00164002
0.00178558
0.00190147
0.00198466
0.00205349
0.00206065
0.00206814
0.00203684
0.00205141
0.00207359
0.00212158
0.00214186
0.00208718
0.00194664
0.00169949
0.00145098
0.00127398
0.00122762
0.00130936
-0.000736215
-0.000536885
-0.000420493
-0.000342826
-0.000340091
-0.000327499
-0.000338898
-0.000324101
-0.000351277
-0.000321552
-0.000321864
-0.000378009
-0.000573538
-0.000914153
-0.00135193
-0.00169292
-0.00177515
-0.00162277
-0.00132822
-0.00100573
0.00119354
0.00130362
0.00136155
0.00140734
0.00142098
0.00142849
0.00139431
0.00138209
0.00132037
0.00133714
0.0012921
0.00116707
0.00087155
0.000488597
0.00020984
0.000142125
0.000281866
0.0005353
0.000807567
0.00103504
-0.000147564
-0.000107678
-0.000100721
-9.4915e-05
-0.000106265
-8.11644e-05
-8.14167e-05
-5.21509e-05
-8.0677e-05
-4.79705e-05
-0.000146069
-0.000405236
-0.000835032
-0.00126653
-0.00141116
-0.00125927
-0.000943653
-0.00062761
-0.000382867
-0.000227916
0.000755592
0.000805119
0.000828944
0.000854123
0.000842676
0.000839314
0.000802093
0.000782207
0.000715536
0.000710464
0.000569026
0.00027047
-0.000140759
-0.000351339
-0.000309572
-8.42355e-05
0.000196888
0.000422842
0.00058534
0.000689989
-1.31752e-06
1.53228e-06
-8.67938e-06
-9.85141e-06
-1.11313e-05
1.08381e-05
1.2694e-05
3.28403e-05
6.32211e-06
1.36487e-05
-0.000167502
-0.000561153
-0.000964073
-0.00106222
-0.000862644
-0.000580321
-0.000319704
-0.00015572
-5.87549e-05
-1.4608e-05
0.000436301
0.000461625
0.000472869
0.000483671
0.000471189
0.000463133
0.000433052
0.000411105
0.000358867
0.000343736
0.000172132
-0.000189327
-0.000442132
-0.00043742
-0.000214985
4.94714e-06
0.000187159
0.000292496
0.000363627
0.000406528
4.21585e-05
4.12774e-05
3.31769e-05
3.55365e-05
3.49726e-05
5.00338e-05
5.02177e-05
6.62651e-05
4.92128e-05
7.44663e-05
-9.67507e-05
-0.000520228
-0.000702647
-0.000627357
-0.000391071
-0.000209444
-7.27356e-05
-9.14821e-06
2.83863e-05
4.06635e-05
0.000247895
0.00026034
0.000264629
0.000268085
0.00025716
0.000248674
0.000225302
0.00020783
0.000172919
0.000191971
5.96803e-05
-0.000219163
-0.000326236
-0.00022428
-4.73966e-05
6.54817e-05
0.000150445
0.000187142
0.000217195
0.000233942
5.35844e-05
5.44719e-05
5.06813e-05
5.4584e-05
5.359e-05
6.49676e-05
6.45212e-05
8.77502e-05
8.41124e-05
0.00018943
7.78072e-05
-0.000267611
-0.000353293
-0.000290627
-0.000147369
-6.63615e-05
1.27131e-06
2.57618e-05
4.58032e-05
5.14083e-05
0.000143806
0.000149563
0.000150232
0.000150806
0.000141231
0.000133668
0.000114689
0.000102504
8.20723e-05
0.00013884
9.96204e-05
-4.88565e-05
-0.000107565
-5.36758e-05
3.22032e-05
6.89016e-05
0.000106137
0.000116044
0.000130651
0.000136971
5.18674e-05
5.42447e-05
5.33493e-05
5.72766e-05
5.62594e-05
6.54259e-05
6.57476e-05
9.41245e-05
0.000105939
0.000280303
0.000267927
-4.96872e-05
-0.000137441
-0.000140566
-7.64502e-05
-3.62985e-05
9.35486e-06
2.52937e-05
4.22596e-05
4.77656e-05
8.81482e-05
9.07888e-05
9.00132e-05
8.94802e-05
8.12888e-05
7.45632e-05
5.83134e-05
4.76868e-05
2.98659e-05
8.68882e-05
0.000197444
3.91752e-05
-1.8243e-05
-1.90644e-05
2.12298e-05
3.44691e-05
6.25932e-05
6.93791e-05
8.0718e-05
8.40946e-05
4.57853e-05
4.84269e-05
4.88072e-05
5.19369e-05
5.09731e-05
5.7107e-05
5.69505e-05
7.33192e-05
6.94715e-05
0.000107987
6.75762e-05
-2.96396e-05
-3.93728e-05
-5.43252e-05
-2.0901e-05
-1.21671e-05
1.41355e-05
2.28794e-05
3.63203e-05
4.11933e-05
5.91407e-05
6.02028e-05
5.90902e-05
5.82243e-05
5.16207e-05
4.58563e-05
3.31262e-05
2.27253e-05
1.07598e-05
1.0044e-05
4.19554e-05
1.13613e-05
2.01019e-05
1.74777e-05
3.68502e-05
3.54483e-05
4.90451e-05
4.90965e-05
5.5708e-05
5.67771e-05
3.94057e-05
4.15207e-05
4.21903e-05
4.42675e-05
4.3279e-05
4.68311e-05
4.68159e-05
5.49189e-05
5.25529e-05
5.92834e-05
3.47505e-05
-1.42159e-05
-1.57527e-05
-2.9534e-05
-7.73462e-06
-4.12832e-06
1.46852e-05
2.06847e-05
3.12911e-05
3.51958e-05
4.3821e-05
4.41335e-05
4.31708e-05
4.2266e-05
3.7227e-05
3.26123e-05
2.31803e-05
1.43121e-05
5.58424e-06
-1.24187e-06
1.28331e-05
7.8829e-06
2.40259e-05
2.17063e-05
3.50371e-05
3.09862e-05
3.93123e-05
3.77559e-05
4.2069e-05
4.22505e-05
3.4321e-05
3.56029e-05
3.61626e-05
3.72864e-05
3.60687e-05
3.77763e-05
3.75901e-05
4.0914e-05
4.02424e-05
3.90628e-05
2.66579e-05
-3.86222e-06
-4.94919e-06
-1.59236e-05
-9.82061e-07
1.23994e-06
1.52512e-05
1.9747e-05
2.79644e-05
3.07584e-05
3.5445e-05
3.53538e-05
3.47294e-05
3.39008e-05
3.01752e-05
2.67185e-05
1.99977e-05
1.29546e-05
7.11525e-06
4.1272e-07
8.16161e-06
8.43818e-06
2.31595e-05
2.10433e-05
3.08885e-05
2.70395e-05
3.2753e-05
3.12503e-05
3.43593e-05
3.42597e-05
3.07823e-05
3.11789e-05
3.16217e-05
3.19673e-05
3.05692e-05
3.0997e-05
3.03888e-05
3.09016e-05
3.12938e-05
2.7452e-05
2.2343e-05
2.1464e-06
2.34508e-06
-5.67408e-06
5.00156e-06
6.45911e-06
1.66823e-05
2.00368e-05
2.61324e-05
2.7905e-05
3.08218e-05
3.027e-05
3.00414e-05
2.92321e-05
2.6355e-05
2.38388e-05
1.96596e-05
1.38067e-05
1.06221e-05
4.60452e-06
9.86028e-06
9.65337e-06
2.13274e-05
1.89128e-05
2.67267e-05
2.40003e-05
2.82125e-05
2.73877e-05
2.98147e-05
2.95215e-05
2.8525e-05
2.80538e-05
2.85528e-05
2.83881e-05
2.67433e-05
2.64664e-05
2.55151e-05
2.4188e-05
2.52187e-05
2.05773e-05
1.951e-05
6.07648e-06
8.03567e-06
2.29236e-06
1.02161e-05
1.12408e-05
1.83215e-05
2.08811e-05
2.52708e-05
2.60978e-05
2.8196e-05
2.71148e-05
2.72985e-05
2.63757e-05
2.40498e-05
2.2516e-05
1.96868e-05
1.49e-05
1.42087e-05
8.03561e-06
1.29536e-05
1.04485e-05
1.97608e-05
1.72476e-05
2.33491e-05
2.19249e-05
2.51191e-05
2.51138e-05
2.70024e-05
2.65575e-05
2.69913e-05
2.60295e-05
2.67523e-05
2.59565e-05
2.4414e-05
2.3752e-05
2.28838e-05
2.00765e-05
2.16501e-05
1.6623e-05
1.83037e-05
8.98146e-06
1.24864e-05
7.79303e-06
1.4243e-05
1.49448e-05
1.97913e-05
2.18994e-05
2.47339e-05
2.50782e-05
2.6786e-05
2.47509e-05
2.56991e-05
2.46698e-05
2.2435e-05
2.15314e-05
1.9726e-05
1.54038e-05
1.66088e-05
1.03365e-05
1.5402e-05
1.11531e-05
1.89838e-05
1.60803e-05
2.12717e-05
2.08505e-05
2.28664e-05
2.38833e-05
2.53895e-05
2.45973e-05
2.6544e-05
2.45711e-05
2.58191e-05
2.44192e-05
2.26353e-05
2.26927e-05
2.12989e-05
1.77067e-05
2.06703e-05
1.42027e-05
1.86193e-05
1.0414e-05
1.57184e-05
1.16452e-05
1.67402e-05
1.78724e-05
2.07062e-05
2.28794e-05
2.44003e-05
2.40847e-05
2.5617e-05
2.31063e-05
2.48821e-05
2.32188e-05
2.1351e-05
2.09875e-05
1.98682e-05
1.48987e-05
1.81844e-05
1.11766e-05
1.72654e-05
1.13844e-05
1.90544e-05
1.502e-05
1.99564e-05
2.02242e-05
2.15035e-05
2.33999e-05
2.40213e-05
2.33775e-05
2.65768e-05
2.28117e-05
2.54967e-05
2.39453e-05
2.12442e-05
2.18945e-05
2.06896e-05
1.62176e-05
2.06487e-05
1.28911e-05
1.94313e-05
1.12678e-05
1.80434e-05
1.36916e-05
1.86217e-05
2.00144e-05
2.05388e-05
2.37691e-05
2.46478e-05
2.31817e-05
2.52535e-05
2.13481e-05
2.44343e-05
2.22822e-05
1.98207e-05
2.10416e-05
1.9713e-05
1.39148e-05
1.9707e-05
1.0411e-05
1.90567e-05
1.05528e-05
1.92333e-05
1.41685e-05
1.88243e-05
2.02939e-05
2.01409e-05
2.32767e-05
2.30496e-05
2.17735e-05
2.65194e-05
2.16487e-05
2.56516e-05
2.30313e-05
2.00924e-05
2.197e-05
2.03546e-05
1.45275e-05
2.13406e-05
1.15801e-05
2.07049e-05
1.11938e-05
2.00496e-05
1.43058e-05
1.93843e-05
2.12876e-05
2.04036e-05
2.46415e-05
2.41467e-05
2.23506e-05
2.55325e-05
1.87257e-05
2.44497e-05
2.19124e-05
1.72561e-05
2.15335e-05
1.94724e-05
1.19469e-05
2.09011e-05
8.69619e-06
2.04686e-05
9.0122e-06
1.97959e-05
1.26924e-05
1.76338e-05
2.09308e-05
1.79199e-05
2.3399e-05
2.24879e-05
1.93027e-05
2.66394e-05
1.98268e-05
2.61951e-05
2.23047e-05
1.84641e-05
2.26786e-05
1.99645e-05
1.23195e-05
2.28883e-05
9.33069e-06
2.26031e-05
9.65096e-06
2.1743e-05
1.35297e-05
1.94919e-05
2.21791e-05
1.923e-05
2.55647e-05
2.34844e-05
2.09978e-05
2.56696e-05
1.55413e-05
2.53221e-05
2.08005e-05
1.39538e-05
2.27278e-05
1.90102e-05
8.28403e-06
2.26252e-05
5.2396e-06
2.23206e-05
5.87167e-06
2.08121e-05
9.91834e-06
1.61479e-05
2.12584e-05
1.51052e-05
2.41237e-05
2.10167e-05
1.62773e-05
2.73424e-05
1.70179e-05
2.71927e-05
2.13558e-05
1.52902e-05
2.39932e-05
1.92785e-05
9.32061e-06
2.44807e-05
6.23386e-06
2.43338e-05
6.97084e-06
2.30039e-05
1.10697e-05
1.89212e-05
2.32154e-05
1.67634e-05
2.65413e-05
2.23404e-05
1.81877e-05
2.66538e-05
9.15801e-06
2.79614e-05
1.98581e-05
7.0384e-06
2.59575e-05
1.84424e-05
4.69201e-07
2.61862e-05
-2.02261e-06
2.58283e-05
-9.86032e-07
2.32453e-05
3.53841e-06
1.3572e-05
2.27021e-05
9.03692e-06
2.62308e-05
1.94046e-05
1.03686e-05
2.77834e-05
1.19169e-05
2.90726e-05
1.92257e-05
9.84608e-06
2.66176e-05
1.75398e-05
3.41204e-06
2.66787e-05
4.43752e-07
2.63725e-05
1.48482e-06
2.41858e-05
5.82891e-06
1.70671e-05
2.34431e-05
1.17324e-05
2.78506e-05
1.95684e-05
1.33963e-05
2.98543e-05
-5.15978e-06
3.56355e-05
1.6041e-05
-1.0269e-05
3.55927e-05
1.54341e-05
-1.81112e-05
3.38323e-05
-1.88787e-05
3.2754e-05
-1.72146e-05
2.85383e-05
-1.23942e-05
8.31569e-06
2.62087e-05
-5.10841e-06
3.25411e-05
1.45189e-05
-3.97212e-06
-0.0108899
-0.0104971
-0.0101915
-0.00998054
-0.00986451
-0.00985179
-0.00997223
-0.0102062
-0.0105481
-0.0109742
-0.0114627
-0.011963
-0.0124117
-0.0127304
-0.0128664
-0.0128293
-0.0126282
-0.0122784
-0.0118304
-0.0113485
0.00232326
0.00227584
0.00214442
0.00198342
0.00183069
0.00174281
0.00167671
0.001595
0.00147621
0.00132457
0.00112418
0.000901105
0.000709962
0.000612389
0.00067011
0.000934031
0.00130899
0.00170073
0.00203224
0.00224753
-0.00230497
-0.00206746
-0.00188102
-0.00174524
-0.00169599
-0.00175137
-0.00187805
-0.0020262
-0.00224228
-0.00249655
-0.00282724
-0.0031804
-0.00348893
-0.0036674
-0.00370989
-0.00363813
-0.00345026
-0.00316869
-0.00286277
-0.00256924
0.00289489
0.00296061
0.00298582
0.00300396
0.00300875
0.00300892
0.00294273
0.0028661
0.00270135
0.00251041
0.00218328
0.00181035
0.0014933
0.00135216
0.00147178
0.00172993
0.00207204
0.00238289
0.00262301
0.00279121
-0.0004448
-0.000295803
-0.000223009
-0.000176148
-0.000213775
-0.000229028
-0.00028957
-0.000334336
-0.000486345
-0.000677426
-0.00109316
-0.00160185
-0.002047
-0.00229365
-0.00232464
-0.00214404
-0.00178138
-0.00136548
-0.000976717
-0.000663731
0.0020081
0.00211162
0.00216311
0.00220973
0.0022062
0.00219651
0.00211415
0.00204386
0.0018514
0.00163245
0.00112638
0.000589571
0.00020205
0.00012774
0.000329248
0.000683013
0.00106434
0.00139766
0.00166726
0.00187011
6.1843e-05
0.000107848
0.000112926
0.000117786
9.5591e-05
0.000117771
8.76647e-05
8.14441e-05
-6.14434e-05
-0.000264434
-0.000853888
-0.00148143
-0.00189369
-0.00197389
-0.00169547
-0.00125156
-0.000796923
-0.000438754
-0.00018304
-2.27486e-05
0.00124245
0.00131471
0.00134874
0.00138362
0.00135968
0.00134619
0.00126953
0.00120426
0.00101911
0.000772296
0.000137437
-0.000440803
-0.000702925
-0.000541912
-0.000164752
0.000230663
0.000582514
0.000834743
0.00102223
0.00115291
0.000170022
0.000182675
0.000171965
0.000174097
0.000166879
0.000191113
0.000170995
0.000166217
4.42964e-05
-0.00017455
-0.000842089
-0.0014595
-0.00166134
-0.00141518
-0.000952853
-0.00055445
-0.000235711
-4.36483e-05
7.99291e-05
0.000143925
0.000734599
0.000776944
0.000794593
0.00081098
0.000788666
0.000773678
0.000713853
0.000658762
0.000515313
0.000288691
-0.000328265
-0.000821902
-0.000824322
-0.00053357
-0.00012586
0.000161429
0.000386482
0.000516938
0.000617753
0.000684998
0.000175351
0.000181707
0.000173178
0.000179847
0.000174676
0.00019274
0.000177328
0.000180264
9.75912e-05
-4.89785e-05
-0.000618568
-0.00113906
-0.00107384
-0.000777177
-0.000401965
-0.000175072
-1.64056e-06
8.00111e-05
0.000138913
0.000164717
0.000431737
0.000454526
0.000461832
0.00046865
0.000449744
0.00043683
0.00039269
0.00035605
0.000263952
0.000136164
-0.000324425
-0.000609706
-0.000494054
-0.000229871
3.6416e-05
0.000168863
0.000278472
0.000326398
0.000375482
0.000405807
0.000153706
0.000160385
0.000156986
0.000165135
0.000160583
0.000175895
0.00016596
0.000191147
0.000155071
0.000177149
-0.000200457
-0.000570125
-0.000481531
-0.000322421
-0.000116056
-2.66421e-05
6.29817e-05
9.51322e-05
0.000130333
0.000144419
0.000260192
0.00027229
0.00027428
0.000277195
0.000261128
0.000251061
0.000217756
0.000198337
0.000150649
0.000140253
-8.10422e-05
-0.00019467
-0.000121091
-6.32151e-06
0.000113624
0.00014366
0.000193536
0.00020549
0.000232283
0.000245821
0.000126745
0.000133974
0.000134083
0.000141801
0.000138054
0.000151552
0.000146739
0.00018688
0.000192283
0.000364677
0.000228358
-0.000145188
-0.000153213
-0.000138186
-4.72847e-05
-1.02332e-05
5.358e-05
7.445e-05
0.000104419
0.000116369
0.000165825
0.000172582
0.000172423
0.000173594
0.00016005
0.000151636
0.000124375
0.000111352
7.9432e-05
0.000145703
0.000252719
1.06243e-05
-2.10592e-05
-1.3132e-05
5.58559e-05
6.91666e-05
0.000115366
0.000125806
0.00014806
0.000156317
0.000103014
0.000109469
0.000110983
0.000117123
0.000113899
0.000123273
0.000119178
0.000143537
0.000132283
0.000187118
0.000109825
-5.96667e-05
-5.35657e-05
-7.42957e-05
-1.30761e-05
-2.74284e-06
4.35679e-05
5.78779e-05
8.30467e-05
9.3044e-05
0.000115102
0.000118785
0.000117998
0.000118341
0.000107409
0.000100175
7.8862e-05
6.55346e-05
4.35374e-05
4.50695e-05
7.716e-05
7.04085e-06
3.14784e-05
2.42264e-05
6.41055e-05
6.06942e-05
8.85292e-05
9.01265e-05
0.000104889
0.000108833
8.50389e-05
8.98121e-05
9.14411e-05
9.56554e-05
9.27082e-05
9.8239e-05
9.5183e-05
0.000106965
9.92695e-05
0.000108501
6.56279e-05
-2.33288e-05
-1.49919e-05
-3.84393e-05
3.09588e-06
6.2939e-06
4.03459e-05
4.96908e-05
6.92362e-05
7.65933e-05
8.75424e-05
8.94121e-05
8.86724e-05
8.85601e-05
8.01203e-05
7.42394e-05
5.83745e-05
4.61643e-05
3.01754e-05
1.97976e-05
3.37616e-05
1.19731e-05
4.25894e-05
3.42922e-05
6.24172e-05
5.47136e-05
7.30499e-05
7.13912e-05
8.14477e-05
8.31355e-05
7.26381e-05
7.54921e-05
7.6781e-05
7.92517e-05
7.62251e-05
7.89552e-05
7.6346e-05
8.06605e-05
7.67315e-05
7.29752e-05
5.17527e-05
-2.40971e-06
3.72109e-06
-1.59683e-05
1.32487e-05
1.43221e-05
3.96504e-05
4.60881e-05
6.09088e-05
6.58085e-05
7.21833e-05
7.28234e-05
7.24482e-05
7.20595e-05
6.56748e-05
6.12166e-05
4.98397e-05
3.95481e-05
2.90531e-05
1.74545e-05
2.59638e-05
1.75146e-05
4.41971e-05
3.66224e-05
5.74653e-05
5.00821e-05
6.3046e-05
6.10113e-05
6.82579e-05
6.88508e-05
6.46649e-05
6.56436e-05
6.66998e-05
6.77215e-05
6.46125e-05
6.54189e-05
6.28008e-05
6.26995e-05
6.15293e-05
5.34963e-05
4.50865e-05
9.68767e-06
1.59393e-05
9.3834e-07
2.22247e-05
2.24506e-05
4.09425e-05
4.55139e-05
5.63682e-05
5.92316e-05
6.3622e-05
6.30097e-05
6.31791e-05
6.24592e-05
5.73924e-05
5.41504e-05
4.68575e-05
3.78173e-05
3.23125e-05
2.12009e-05
2.82677e-05
2.18857e-05
4.3169e-05
3.58924e-05
5.22584e-05
4.68173e-05
5.63524e-05
5.51921e-05
6.06277e-05
6.04456e-05
5.98386e-05
5.90205e-05
6.0219e-05
6.0183e-05
5.68333e-05
5.66398e-05
5.39962e-05
5.09733e-05
5.18593e-05
4.24489e-05
4.14345e-05
1.74681e-05
2.52406e-05
1.39348e-05
2.99876e-05
3.0014e-05
4.29e-05
4.6406e-05
5.41116e-05
5.5228e-05
5.88108e-05
5.68757e-05
5.77529e-05
5.65102e-05
5.22782e-05
5.04215e-05
4.53965e-05
3.74869e-05
3.65991e-05
2.49605e-05
3.30187e-05
2.46309e-05
4.2093e-05
3.52007e-05
4.80974e-05
4.49368e-05
5.19453e-05
5.20737e-05
5.60464e-05
5.52812e-05
5.68504e-05
5.47364e-05
5.64894e-05
5.52125e-05
5.20367e-05
5.14326e-05
4.92076e-05
4.37866e-05
4.65687e-05
3.62414e-05
4.04785e-05
2.29619e-05
3.25382e-05
2.2955e-05
3.60197e-05
3.60468e-05
4.47722e-05
4.79158e-05
5.28123e-05
5.29297e-05
5.63183e-05
5.23958e-05
5.46827e-05
5.28801e-05
4.87518e-05
4.7976e-05
4.45742e-05
3.69034e-05
3.98257e-05
2.75047e-05
3.71358e-05
2.65781e-05
4.19967e-05
3.47357e-05
4.56903e-05
4.44121e-05
4.87768e-05
5.06786e-05
5.34647e-05
5.19047e-05
5.58806e-05
5.16321e-05
5.46104e-05
5.20675e-05
4.84829e-05
4.91989e-05
4.63858e-05
3.94189e-05
4.53957e-05
3.23557e-05
4.18266e-05
2.57255e-05
3.79969e-05
2.91419e-05
3.98044e-05
4.09117e-05
4.58559e-05
4.95861e-05
5.20402e-05
5.095e-05
5.4554e-05
4.91132e-05
5.32044e-05
5.00593e-05
4.6247e-05
4.66859e-05
4.42571e-05
3.51205e-05
4.23025e-05
2.79885e-05
4.05792e-05
2.72622e-05
4.29971e-05
3.39075e-05
4.42156e-05
4.44049e-05
4.67112e-05
5.04526e-05
5.13725e-05
4.96684e-05
5.58909e-05
4.81854e-05
5.40077e-05
5.0731e-05
4.55886e-05
4.78032e-05
4.51746e-05
3.63113e-05
4.58816e-05
2.98134e-05
4.39589e-05
2.70114e-05
4.20784e-05
3.22648e-05
4.25672e-05
4.4581e-05
4.52594e-05
5.12505e-05
5.21496e-05
4.9095e-05
5.41462e-05
4.56249e-05
5.25961e-05
4.81644e-05
4.31049e-05
4.66614e-05
4.36877e-05
3.25859e-05
4.49907e-05
2.59485e-05
4.40328e-05
2.58331e-05
4.40932e-05
3.2784e-05
4.27751e-05
4.52329e-05
4.4369e-05
5.07876e-05
4.97945e-05
4.67708e-05
5.60017e-05
4.53918e-05
5.43895e-05
4.89097e-05
4.28316e-05
4.80537e-05
4.43863e-05
3.26638e-05
4.76154e-05
2.68174e-05
4.68254e-05
2.62857e-05
4.56774e-05
3.27729e-05
4.35308e-05
4.69739e-05
4.43553e-05
5.29602e-05
5.1132e-05
4.70833e-05
5.47902e-05
4.06436e-05
5.29667e-05
4.70762e-05
3.82137e-05
4.77105e-05
4.29859e-05
2.82911e-05
4.75327e-05
2.20496e-05
4.71323e-05
2.26697e-05
4.57397e-05
3.00693e-05
4.09617e-05
4.67273e-05
4.03699e-05
5.15378e-05
4.85793e-05
4.23121e-05
5.65077e-05
4.12387e-05
5.56935e-05
4.72858e-05
3.89289e-05
4.96657e-05
4.34312e-05
2.77131e-05
5.08533e-05
2.18124e-05
5.07476e-05
2.26585e-05
4.89175e-05
3.05387e-05
4.33164e-05
4.87712e-05
4.14444e-05
5.4889e-05
4.96245e-05
4.3873e-05
5.54036e-05
3.42864e-05
5.49689e-05
4.48269e-05
3.16375e-05
5.03031e-05
4.18367e-05
2.09127e-05
5.12128e-05
1.491e-05
5.11187e-05
1.63317e-05
4.81276e-05
2.45866e-05
3.84239e-05
4.77559e-05
3.48272e-05
5.33149e-05
4.57555e-05
3.64685e-05
5.80319e-05
3.48824e-05
5.8201e-05
4.51263e-05
3.19335e-05
5.2847e-05
4.18422e-05
2.06054e-05
5.46455e-05
1.45389e-05
5.47933e-05
1.6274e-05
5.17781e-05
2.47824e-05
4.1817e-05
5.08306e-05
3.58069e-05
5.72225e-05
4.70254e-05
3.78188e-05
5.74387e-05
2.24997e-05
6.01441e-05
4.24884e-05
1.88951e-05
5.66653e-05
4.02246e-05
6.53135e-06
5.80458e-05
1.26869e-06
5.78487e-05
3.54167e-06
5.27635e-05
1.2748e-05
3.39735e-05
5.04356e-05
2.36762e-05
5.74589e-05
4.22075e-05
2.56549e-05
5.94864e-05
2.415e-05
6.28114e-05
4.09098e-05
2.03482e-05
5.90045e-05
3.83831e-05
7.91675e-06
5.99976e-05
2.06667e-06
5.98095e-05
4.49272e-06
5.49383e-05
1.36038e-05
3.80849e-05
5.19817e-05
2.53268e-05
6.06273e-05
4.15656e-05
2.78296e-05
6.2773e-05
-3.48198e-07
7.314e-05
3.58563e-05
-8.39906e-06
7.30439e-05
3.49626e-05
-2.29167e-05
7.12298e-05
-2.58247e-05
6.9864e-05
-2.2451e-05
6.1784e-05
-1.26657e-05
2.58944e-05
5.63074e-05
1.23824e-06
6.80128e-05
3.3646e-05
3.15793e-06
-0.0134093
-0.0128578
-0.0124068
-0.0120783
-0.011886
-0.0118595
-0.012015
-0.0123308
-0.012796
-0.0133754
-0.0140329
-0.0147004
-0.0152964
-0.0157257
-0.0159226
-0.0158938
-0.015652
-0.015218
-0.0146511
-0.0140254
0.00194231
0.00199826
0.00193202
0.00179825
0.00164219
0.00152895
0.00139541
0.00122349
0.00099128
0.000708005
0.000362187
-6.22331e-06
-0.000321287
-0.000498795
-0.000458059
-0.000148546
0.000328853
0.000863343
0.00135609
0.00172975
-0.00270127
-0.00239136
-0.00217443
-0.00203975
-0.00202615
-0.00213332
-0.00232952
-0.00256803
-0.00290139
-0.00329814
-0.00379865
-0.00432462
-0.00477371
-0.00502075
-0.00505407
-0.00487376
-0.00451
-0.00402756
-0.00353158
-0.00308064
0.00337011
0.00344972
0.00346908
0.00347257
0.00344984
0.00340611
0.00328088
0.00312675
0.00284979
0.00251431
0.00199849
0.00143979
0.00100156
0.00085583
0.00110005
0.00154659
0.0020994
0.00259491
0.00297132
0.00322449
-0.000267345
-0.00010701
-3.60313e-05
3.8759e-07
-6.04246e-05
-0.000100823
-0.000209706
-0.000321034
-0.000584628
-0.000931045
-0.00156757
-0.0022848
-0.00283079
-0.00305038
-0.00292398
-0.00252662
-0.001956
-0.00137965
-0.000886602
-0.000514681
0.00246015
0.00258176
0.00263916
0.00268716
0.00266484
0.00263213
0.00250138
0.00236585
0.00205813
0.00167482
0.000924489
0.000189776
-0.000253345
-0.000210056
0.000183131
0.000734281
0.00127228
0.00171189
0.00204953
0.0022954
0.000291261
0.000351812
0.000360391
0.00036392
0.000332589
0.000341238
0.000273747
0.000214204
-3.73936e-05
-0.000407457
-0.00126294
-0.00208214
-0.00251745
-0.00245166
-0.0019702
-0.00134855
-0.000764164
-0.000322706
-1.20562e-05
0.000184323
0.00156869
0.00166032
0.00170217
0.00174017
0.00170413
0.0016749
0.00155943
0.00144024
0.00114793
0.000731828
-0.000173011
-0.000912217
-0.00113426
-0.000817759
-0.000254224
0.000278257
0.000729376
0.00104782
0.00128529
0.00145289
0.000365092
0.000390364
0.000382651
0.000387729
0.000372789
0.000388665
0.000339283
0.000292364
7.61508e-05
-0.000303972
-0.00124315
-0.00200431
-0.00213002
-0.00171775
-0.00108777
-0.000577679
-0.000178029
6.62272e-05
0.000229555
0.00032107
0.000956454
0.00101241
0.00103478
0.00105306
0.00102183
0.000996369
0.000907538
0.00081228
0.000583311
0.000208289
-0.000662956
-0.00125903
-0.00115949
-0.000716229
-0.000172045
0.000198711
0.000487946
0.000660249
0.000796087
0.000888659
0.000324415
0.000339791
0.000333237
0.000342808
0.000331559
0.000344622
0.000308181
0.000283717
0.000132348
-0.000137272
-0.000939995
-0.00154418
-0.00136478
-0.000938961
-0.000452232
-0.00016361
6.03327e-05
0.000172538
0.000258005
0.000301562
0.000580744
0.000612163
0.000621826
0.000630185
0.000604308
0.000584912
0.000520858
0.000459831
0.000311507
8.34619e-05
-0.000573416
-0.000896656
-0.000676537
-0.000310089
3.8137e-05
0.000210932
0.000358092
0.000427712
0.000498468
0.000543569
0.000263474
0.000276615
0.000274693
0.000285386
0.000276182
0.0002895
0.000266264
0.000280575
0.000205655
0.000167148
-0.000374562
-0.000785119
-0.00060989
-0.000383455
-0.000115262
2.0628e-07
0.000119954
0.000167862
0.000220584
0.00024569
0.000362083
0.000379794
0.000382981
0.000387277
0.000365752
0.000352075
0.000305672
0.000275358
0.000198676
0.00014467
-0.000190184
-0.000317059
-0.000177992
-1.94983e-05
0.000140874
0.000183734
0.000255399
0.000277412
0.000318211
0.000340386
0.000207452
0.00021947
0.000220771
0.000230674
0.000223375
0.000236787
0.00022414
0.000264685
0.000255369
0.000422921
0.000204827
-0.000225327
-0.000190435
-0.00015782
-3.35091e-05
1.28959e-05
9.80092e-05
0.000128101
0.000171216
0.000190649
0.000238415
0.000249012
0.000249526
0.000251862
0.000233916
0.000223379
0.000186769
0.000169562
0.000123059
0.000189283
0.000274497
-2.71571e-05
-3.75313e-05
-2.09592e-05
7.48796e-05
9.49925e-05
0.000159444
0.000176501
0.000209618
0.000223608
0.000163945
0.000173882
0.000176292
0.00018413
0.000178015
0.000187602
0.000177976
0.00020364
0.000182914
0.000241529
0.000134219
-8.53917e-05
-6.60312e-05
-8.7815e-05
-2.42798e-06
1.28527e-05
7.69896e-05
9.79e-05
0.000133657
0.000148996
0.000169924
0.000176206
0.000175817
0.000177036
0.000162508
0.000153708
0.000125297
0.000108834
7.73111e-05
7.71183e-05
0.000100495
-1.61866e-06
3.48261e-05
2.51964e-05
8.36437e-05
8.20032e-05
0.000123631
0.000129058
0.000152052
0.000159746
0.000133235
0.000140361
0.000142591
0.000147969
0.000142552
0.000148038
0.000140786
0.000152515
0.000138577
0.000146238
8.92728e-05
-2.97037e-05
-1.30081e-05
-4.19901e-05
1.65671e-05
2.16103e-05
6.91272e-05
8.25617e-05
0.000110117
0.000121037
0.000131673
0.000135183
0.000134683
0.000135133
0.000123759
0.000116597
9.53622e-05
8.01022e-05
5.75164e-05
4.29535e-05
5.27145e-05
1.45117e-05
5.51968e-05
4.23209e-05
8.38238e-05
7.55343e-05
0.000103935
0.000104231
0.000120339
0.000124361
0.00011292
0.000117159
0.000118824
0.000121961
0.00011674
0.000119151
0.000113235
0.000116409
0.00010846
0.00010086
7.29637e-05
6.60991e-07
1.34708e-05
-1.18501e-05
2.98477e-05
3.12379e-05
6.65476e-05
7.54331e-05
9.61555e-05
0.000103273
0.000109913
0.000111392
0.000111198
0.000111062
0.000102254
9.67488e-05
8.13837e-05
6.8176e-05
5.34744e-05
3.7073e-05
4.40995e-05
2.60299e-05
6.11802e-05
4.90719e-05
7.99036e-05
7.12696e-05
9.16672e-05
9.06941e-05
0.0001024
0.000104366
0.000100175
0.000101686
0.000103029
0.000104276
9.91695e-05
9.94964e-05
9.42317e-05
9.23173e-05
8.88454e-05
7.63645e-05
6.54667e-05
1.83853e-05
3.05357e-05
1.07425e-05
4.14494e-05
4.14013e-05
6.72054e-05
7.3327e-05
8.84621e-05
9.25599e-05
9.7598e-05
9.70732e-05
9.74895e-05
9.67048e-05
8.95413e-05
8.54831e-05
7.53223e-05
6.34402e-05
5.5747e-05
3.98327e-05
4.72989e-05
3.40655e-05
6.24877e-05
5.11317e-05
7.52745e-05
6.87154e-05
8.37626e-05
8.339e-05
9.20969e-05
9.25736e-05
9.25756e-05
9.14936e-05
9.30751e-05
9.28671e-05
8.76273e-05
8.69673e-05
8.21899e-05
7.68713e-05
7.69234e-05
6.28808e-05
6.20472e-05
2.98437e-05
4.32364e-05
2.78993e-05
5.12819e-05
5.09698e-05
6.90859e-05
7.37729e-05
8.45025e-05
8.61048e-05
9.06611e-05
8.80642e-05
8.9422e-05
8.77515e-05
8.1605e-05
7.92457e-05
7.20772e-05
6.13024e-05
6.00095e-05
4.34274e-05
5.34878e-05
3.91674e-05
6.30175e-05
5.24386e-05
7.16091e-05
6.77792e-05
7.87758e-05
7.97754e-05
8.60408e-05
8.53808e-05
8.80483e-05
8.48947e-05
8.73616e-05
8.54665e-05
8.04642e-05
7.95901e-05
7.56414e-05
6.74448e-05
7.08103e-05
5.55033e-05
6.19991e-05
3.78139e-05
5.3114e-05
3.98301e-05
5.88936e-05
5.87798e-05
7.10702e-05
7.54257e-05
8.22857e-05
8.23376e-05
8.70762e-05
8.15889e-05
8.48796e-05
8.22314e-05
7.61814e-05
7.53322e-05
7.02371e-05
5.94339e-05
6.36382e-05
4.5885e-05
5.90966e-05
4.26242e-05
6.43385e-05
5.34266e-05
6.9742e-05
6.8331e-05
7.52791e-05
7.84538e-05
8.26719e-05
8.07086e-05
8.63883e-05
8.01132e-05
8.44604e-05
8.07828e-05
7.52455e-05
7.6263e-05
7.18659e-05
6.15624e-05
6.98118e-05
5.08629e-05
6.46559e-05
4.19728e-05
6.05808e-05
4.79069e-05
6.37313e-05
6.51567e-05
7.21536e-05
7.75312e-05
8.09936e-05
7.93039e-05
8.47806e-05
7.67243e-05
8.26996e-05
7.8139e-05
7.22361e-05
7.33023e-05
6.93611e-05
5.64142e-05
6.67945e-05
4.59321e-05
6.4015e-05
4.40007e-05
6.66742e-05
5.34108e-05
6.86725e-05
6.93206e-05
7.28599e-05
7.86013e-05
8.005e-05
7.74785e-05
8.62008e-05
7.50978e-05
8.34716e-05
7.84993e-05
7.09343e-05
7.43843e-05
7.01634e-05
5.71048e-05
7.09808e-05
4.74769e-05
6.8239e-05
4.37381e-05
6.62647e-05
5.18906e-05
6.71315e-05
7.00532e-05
7.11617e-05
7.97619e-05
8.0792e-05
7.64631e-05
8.42762e-05
7.16395e-05
8.19053e-05
7.53403e-05
6.76039e-05
7.31417e-05
6.83974e-05
5.24425e-05
7.0455e-05
4.28243e-05
6.89979e-05
4.23294e-05
6.89647e-05
5.23963e-05
6.73305e-05
7.10673e-05
6.98267e-05
7.94429e-05
7.79892e-05
7.34184e-05
8.63825e-05
7.0675e-05
8.39623e-05
7.58539e-05
6.66116e-05
7.47823e-05
6.90072e-05
5.17607e-05
7.37712e-05
4.30914e-05
7.26836e-05
4.24789e-05
7.12714e-05
5.22599e-05
6.8204e-05
7.34173e-05
6.94532e-05
8.21342e-05
7.92768e-05
7.32182e-05
8.51206e-05
6.46473e-05
8.25683e-05
7.35117e-05
6.07525e-05
7.46353e-05
6.73021e-05
4.61053e-05
7.42245e-05
3.70709e-05
7.36987e-05
3.79295e-05
7.17919e-05
4.88285e-05
6.52065e-05
7.34037e-05
6.44803e-05
8.08193e-05
7.61554e-05
6.72966e-05
8.71662e-05
6.43456e-05
8.58714e-05
7.34123e-05
6.0562e-05
7.71632e-05
6.75932e-05
4.43677e-05
7.8486e-05
3.57464e-05
7.84024e-05
3.70944e-05
7.584e-05
4.87204e-05
6.76151e-05
7.60268e-05
6.49537e-05
8.48853e-05
7.6986e-05
6.81974e-05
8.6083e-05
5.55985e-05
8.54713e-05
7.03143e-05
5.14172e-05
7.83752e-05
6.5593e-05
3.56281e-05
7.95647e-05
2.69102e-05
7.95474e-05
2.90463e-05
7.54302e-05
4.121e-05
6.18737e-05
7.5134e-05
5.67233e-05
8.34907e-05
7.22278e-05
5.90656e-05
8.92262e-05
5.48831e-05
8.9616e-05
7.02043e-05
5.02636e-05
8.19053e-05
6.52797e-05
3.36322e-05
8.41642e-05
2.4893e-05
8.4462e-05
2.75503e-05
8.00525e-05
4.01601e-05
6.51813e-05
7.89086e-05
5.66033e-05
8.83278e-05
7.31093e-05
5.93104e-05
8.87413e-05
3.98037e-05
9.24276e-05
6.67903e-05
3.43682e-05
8.70007e-05
6.31358e-05
1.64217e-05
8.8761e-05
8.59709e-06
8.86485e-05
1.19643e-05
8.16197e-05
2.54253e-05
5.59545e-05
7.86711e-05
4.18881e-05
8.90451e-05
6.70656e-05
4.4586e-05
9.13446e-05
3.99191e-05
9.62777e-05
6.44939e-05
3.40405e-05
9.07311e-05
6.06669e-05
1.58136e-05
9.19506e-05
7.4384e-06
9.18197e-05
1.11008e-05
8.4726e-05
2.45788e-05
5.98895e-05
8.0842e-05
4.21004e-05
9.3287e-05
6.56605e-05
4.53714e-05
9.4939e-05
1.21044e-05
0.000108324
5.84344e-05
1.47881e-06
0.000107147
5.65843e-05
-1.91244e-05
0.000105058
-2.42458e-05
0.00010356
-1.94883e-05
9.25621e-05
-5.29726e-06
4.59128e-05
8.57054e-05
1.47911e-05
0.000101734
5.61274e-05
1.7495e-05
-0.0148152
-0.0141867
-0.0136702
-0.0132932
-0.0130785
-0.0130623
-0.013252
-0.0136252
-0.0141683
-0.0148384
-0.0155913
-0.016348
-0.0170158
-0.0174897
-0.0177
-0.0176539
-0.017367
-0.0168677
-0.016223
-0.015514
0.00143244
0.00154077
0.00151194
0.00139964
0.001254
0.00113264
0.000958818
0.000729172
0.000420919
4.95535e-05
-0.000390773
-0.00084807
-0.0012315
-0.00144447
-0.00139573
-0.00104272
-0.000497037
0.000120826
0.000699604
0.00115284
-0.00304965
-0.00269136
-0.00245143
-0.00231344
-0.00232429
-0.00246518
-0.00270944
-0.00301318
-0.00343111
-0.00392576
-0.00453583