/*--------------------------------*- C++ -*----------------------------------*\
| =========                 |                                                 |
| \\      /  F ield         | OpenFOAM: The Open Source CFD Toolbox           |
|  \\    /   O peration     | Version:  2.4.0                                 |
|   \\  /    A nd           | Web:      www.OpenFOAM.org                      |
|    \\/     M anipulation  |                                                 |
\*---------------------------------------------------------------------------*/
FoamFile
{
    version     2.0;
    format      ascii;
    class       volScalarField;
    location    "230";
    object      p;
}
// * * * * * * * * * * * * * * * * * * * * * * * * * * * * * * * * * * * * * //

dimensions      [0 2 -2 0 0 0 0];

internalField   nonuniform List<scalar> 
283312
(
-0.00623172
-0.00629424
-0.00653658
-0.00687774
-0.0072291
-0.00752107
-0.00774654
-0.00790165
-0.00801986
-0.00812553
-0.00823941
-0.00834864
-0.00842111
-0.00840148
-0.008254
-0.00798574
-0.00760967
-0.00716086
-0.00671947
-0.0063833
0.00215001
0.00164258
0.001214
0.00094508
0.000847533
0.000915094
0.00106058
0.00120391
0.00131707
0.00140837
0.00148059
0.00156522
0.00169903
0.0019043
0.00219105
0.00255827
0.00287139
0.00301722
0.00293355
0.00262073
-0.00232484
-0.00216575
-0.00193423
-0.00168733
-0.00149003
-0.0013895
-0.00136937
-0.001374
-0.00142119
-0.00145977
-0.00148544
-0.00145929
-0.00138518
-0.00128744
-0.0012465
-0.00136402
-0.0016199
-0.00192723
-0.00219696
-0.00234065
0.00145637
0.00163559
0.00178398
0.00190184
0.00198629
0.00205641
0.00206395
0.00207149
0.00203992
0.00205442
0.00207747
0.00212819
0.00215232
0.00209935
0.00195801
0.00170614
0.00145044
0.0012672
0.00121774
0.00129954
-0.000754128
-0.000551383
-0.000431948
-0.000351738
-0.000347279
-0.000333884
-0.000344965
-0.000330372
-0.000358485
-0.000330722
-0.000331883
-0.000385312
-0.000574828
-0.000914555
-0.00135947
-0.00170773
-0.00179547
-0.00164535
-0.00135067
-0.00102641
0.00118944
0.00130128
0.00136051
0.00140706
0.00142153
0.00142942
0.0013954
0.0013829
0.00131995
0.00133408
0.00128721
0.00116532
0.000873912
0.000489925
0.000206733
0.000133568
0.000270342
0.000524481
0.000799021
0.00102885
-0.000155178
-0.000113866
-0.000105829
-9.90432e-05
-0.000110041
-8.47622e-05
-8.50655e-05
-5.643e-05
-8.66927e-05
-5.83132e-05
-0.000162645
-0.000426595
-0.000855943
-0.0012882
-0.00143565
-0.00128361
-0.000963673
-0.000642832
-0.000394381
-0.000237215
0.000755115
0.00080491
0.000828886
0.000854186
0.000843025
0.000839762
0.000802629
0.000782413
0.000714654
0.000706201
0.000554821
0.000249238
-0.000156056
-0.00036185
-0.000324362
-9.81321e-05
0.000187946
0.000418239
0.000583329
0.000688871
-2.98967e-06
-4.05657e-07
-1.0688e-05
-1.18125e-05
-1.30889e-05
8.86307e-06
1.07465e-05
3.04678e-05
3.24829e-06
7.67675e-06
-0.000181649
-0.000581927
-0.000981987
-0.00107296
-0.00087026
-0.000585584
-0.000322327
-0.000157083
-5.96883e-05
-1.62336e-05
0.000437071
0.00046186
0.00047279
0.00048356
0.000471016
0.00046282
0.000432764
0.000410492
0.000357966
0.000341288
0.000164196
-0.00020115
-0.000450951
-0.000440492
-0.000215002
6.25602e-06
0.000189244
0.00029444
0.000365427
0.000407426
4.23829e-05
4.07808e-05
3.22322e-05
3.43496e-05
3.37295e-05
4.88337e-05
4.92608e-05
6.54359e-05
4.85686e-05
7.34114e-05
-0.000101342
-0.000527318
-0.000706872
-0.000626989
-0.000388197
-0.000206059
-6.95566e-05
-6.86647e-06
3.01491e-05
4.11872e-05
0.000248631
0.000260447
0.000264291
0.000267591
0.000256582
0.00024792
0.000224593
0.000206955
0.000172105
0.000190816
5.56406e-05
-0.000224061
-0.000327952
-0.000222938
-4.47386e-05
6.80184e-05
0.000152728
0.000188833
0.000218832
0.000234782
5.40933e-05
5.42735e-05
4.99546e-05
5.35789e-05
5.24994e-05
6.38674e-05
6.36127e-05
8.71552e-05
8.39163e-05
0.000190009
7.6643e-05
-0.00026917
-0.000352667
-0.000287931
-0.00014408
-6.34576e-05
3.76134e-06
2.75543e-05
4.74424e-05
5.21442e-05
0.000144318
0.000149517
0.000149718
0.000150099
0.000140405
0.000132678
0.00011371
0.000101497
8.11966e-05
0.00013803
9.77697e-05
-5.05268e-05
-0.000107421
-5.24942e-05
3.37745e-05
7.02233e-05
0.000107403
0.000117014
0.000131801
0.000137559
5.22768e-05
5.41068e-05
5.27134e-05
5.63983e-05
5.52869e-05
6.43978e-05
6.48122e-05
9.34401e-05
0.000105527
0.000280274
0.000267533
-4.98861e-05
-0.000136251
-0.000138924
-7.47891e-05
-3.48248e-05
1.07593e-05
2.63567e-05
4.33987e-05
4.831e-05
8.84158e-05
9.06348e-05
8.94153e-05
8.86871e-05
8.03916e-05
7.35673e-05
5.73312e-05
4.67208e-05
2.89734e-05
8.59519e-05
0.000196176
3.75751e-05
-1.90388e-05
-1.92429e-05
2.14568e-05
3.47388e-05
6.30627e-05
6.97575e-05
8.13634e-05
8.43904e-05
4.59695e-05
4.82301e-05
4.81746e-05
5.11083e-05
5.00771e-05
5.61893e-05
5.61004e-05
7.26132e-05
6.89039e-05
0.000107683
6.73869e-05
-2.99686e-05
-3.93591e-05
-5.42332e-05
-2.0577e-05
-1.18118e-05
1.46169e-05
2.32285e-05
3.68798e-05
4.14288e-05
5.91763e-05
5.99391e-05
5.84293e-05
5.73843e-05
5.06909e-05
4.48747e-05
3.21672e-05
2.1805e-05
9.90409e-06
9.27656e-06
4.11589e-05
1.03582e-05
1.9331e-05
1.68787e-05
3.65267e-05
3.52112e-05
4.90024e-05
4.90335e-05
5.5943e-05
5.68223e-05
3.93443e-05
4.12079e-05
4.15121e-05
4.34361e-05
4.23841e-05
4.59178e-05
4.59502e-05
5.41264e-05
5.18384e-05
5.86699e-05
3.4249e-05
-1.4803e-05
-1.6181e-05
-2.99792e-05
-8.04316e-06
-4.38947e-06
1.45719e-05
2.05453e-05
3.1418e-05
3.5156e-05
4.36101e-05
4.3726e-05
4.24267e-05
4.13768e-05
3.6255e-05
3.15884e-05
2.2156e-05
1.33159e-05
4.61725e-06
-2.1434e-06
1.19097e-05
6.85861e-06
2.31292e-05
2.08638e-05
3.43773e-05
3.04149e-05
3.89164e-05
3.73814e-05
4.1976e-05
4.20475e-05
3.39928e-05
3.51223e-05
3.53818e-05
3.6389e-05
3.51126e-05
3.67974e-05
3.66307e-05
3.99975e-05
3.93788e-05
3.82355e-05
2.58793e-05
-4.71162e-06
-5.72213e-06
-1.67143e-05
-1.66709e-06
6.14976e-07
1.47645e-05
1.9265e-05
2.77305e-05
3.04349e-05
3.49784e-05
3.47719e-05
3.38719e-05
3.29327e-05
2.91385e-05
2.56418e-05
1.89112e-05
1.18809e-05
6.05848e-06
-6.01967e-07
7.13556e-06
7.35711e-06
2.21522e-05
2.00601e-05
3.00289e-05
2.62549e-05
3.20963e-05
3.06032e-05
3.39499e-05
3.37907e-05
3.02021e-05
3.05163e-05
3.07166e-05
3.09746e-05
2.95244e-05
2.99329e-05
2.93346e-05
2.98804e-05
3.03127e-05
2.6502e-05
2.14286e-05
1.19493e-06
1.43885e-06
-6.59695e-06
4.13858e-06
5.6247e-06
1.59288e-05
1.9274e-05
2.55847e-05
2.73163e-05
3.0125e-05
2.95148e-05
2.90662e-05
2.81778e-05
2.5246e-05
2.2703e-05
1.85192e-05
1.26856e-05
9.5216e-06
3.53329e-06
8.79495e-06
8.57032e-06
2.02963e-05
1.78907e-05
2.57645e-05
2.30635e-05
2.73416e-05
2.65073e-05
2.91352e-05
2.88149e-05
2.77317e-05
2.72249e-05
2.7533e-05
2.73066e-05
2.56198e-05
2.53283e-05
2.43829e-05
2.30875e-05
2.41572e-05
1.95489e-05
1.85111e-05
5.06128e-06
7.04624e-06
1.2801e-06
9.22155e-06
1.02451e-05
1.73702e-05
1.99132e-05
2.44846e-05
2.52935e-05
2.73077e-05
2.62065e-05
2.62201e-05
2.52425e-05
2.28742e-05
2.13209e-05
1.84852e-05
1.37171e-05
1.30495e-05
6.90454e-06
1.18367e-05
9.32202e-06
1.8658e-05
1.61366e-05
2.22623e-05
2.08462e-05
2.40857e-05
2.40655e-05
2.612e-05
2.56616e-05
2.60176e-05
2.50503e-05
2.56257e-05
2.47859e-05
2.32103e-05
2.25369e-05
2.167e-05
1.88895e-05
2.04961e-05
1.55009e-05
1.72043e-05
7.87134e-06
1.13813e-05
6.66282e-06
1.31187e-05
1.38167e-05
1.86983e-05
2.07854e-05
2.37669e-05
2.4101e-05
2.57274e-05
2.36971e-05
2.45145e-05
2.34465e-05
2.11817e-05
2.02658e-05
1.84572e-05
1.41543e-05
1.5378e-05
9.12702e-06
1.42016e-05
9.94613e-06
1.77869e-05
1.48765e-05
2.00829e-05
1.96623e-05
2.17123e-05
2.27055e-05
2.43419e-05
2.35407e-05
2.54098e-05
2.34506e-05
2.45835e-05
2.31521e-05
2.13467e-05
2.13979e-05
2.0008e-05
1.64424e-05
1.94273e-05
1.29845e-05
1.74106e-05
9.19938e-06
1.45051e-05
1.04205e-05
1.55187e-05
1.66401e-05
1.95003e-05
2.1644e-05
2.32788e-05
2.29567e-05
2.44122e-05
2.19241e-05
2.3596e-05
2.19037e-05
2.00197e-05
1.96502e-05
1.85341e-05
1.35894e-05
1.68866e-05
9.89927e-06
1.59881e-05
1.01054e-05
1.77779e-05
1.37408e-05
1.86842e-05
1.89394e-05
2.02441e-05
2.21087e-05
2.28286e-05
2.21812e-05
2.53127e-05
2.15808e-05
2.41705e-05
2.25893e-05
1.98813e-05
2.05286e-05
1.93317e-05
1.48918e-05
1.93343e-05
1.16045e-05
1.81428e-05
9.98219e-06
1.67507e-05
1.23918e-05
1.73199e-05
1.86904e-05
1.9236e-05
2.24296e-05
2.33923e-05
2.19267e-05
2.39341e-05
2.00662e-05
2.30703e-05
2.08954e-05
1.84276e-05
1.96444e-05
1.8325e-05
1.25605e-05
1.83574e-05
9.09109e-06
1.77285e-05
9.23118e-06
1.79036e-05
1.28363e-05
1.74892e-05
1.89324e-05
1.87993e-05
2.18944e-05
2.17367e-05
2.04628e-05
2.51622e-05
2.03346e-05
2.42645e-05
2.16256e-05
1.86847e-05
2.0557e-05
1.89533e-05
1.31664e-05
1.99813e-05
1.02593e-05
1.93718e-05
9.87528e-06
1.87151e-05
1.29672e-05
1.80368e-05
1.99066e-05
1.90403e-05
2.32327e-05
2.27956e-05
2.10029e-05
2.41458e-05
1.7388e-05
2.30426e-05
2.04883e-05
1.58357e-05
2.01014e-05
1.80504e-05
1.05695e-05
1.95192e-05
7.35806e-06
1.91117e-05
7.67601e-06
1.84402e-05
1.13391e-05
1.62753e-05
1.95328e-05
1.65428e-05
2.19714e-05
2.11051e-05
1.79275e-05
2.52288e-05
1.84713e-05
2.47716e-05
2.08662e-05
1.70362e-05
2.12323e-05
1.8528e-05
1.0932e-05
2.14909e-05
7.98385e-06
2.12322e-05
8.30835e-06
2.03744e-05
1.21677e-05
1.81241e-05
2.07677e-05
1.78436e-05
2.41221e-05
2.20774e-05
1.96019e-05
2.42311e-05
1.41677e-05
2.38791e-05
1.93434e-05
1.25153e-05
2.12628e-05
1.75543e-05
6.87716e-06
2.12023e-05
3.8706e-06
2.09241e-05
4.5076e-06
1.94207e-05
8.54049e-06
1.47664e-05
1.9828e-05
1.37096e-05
2.26641e-05
1.9588e-05
1.48616e-05
2.58924e-05
1.56347e-05
2.57443e-05
1.98953e-05
1.38528e-05
2.2523e-05
1.78187e-05
7.91215e-06
2.30469e-05
4.86127e-06
2.29261e-05
5.60325e-06
2.16023e-05
9.6865e-06
1.75296e-05
2.17738e-05
1.53635e-05
2.50768e-05
2.09094e-05
1.67668e-05
2.51564e-05
7.7554e-06
2.64688e-05
1.83569e-05
5.59433e-06
2.44513e-05
1.69505e-05
-9.4948e-07
2.47225e-05
-3.40858e-06
2.4392e-05
-2.36619e-06
2.18139e-05
2.14288e-06
1.21727e-05
2.12201e-05
7.6322e-06
2.47286e-05
1.79311e-05
8.93332e-06
2.62773e-05
1.05017e-05
2.75792e-05
1.77261e-05
8.3953e-06
2.51096e-05
1.60497e-05
1.98571e-06
2.52104e-05
-9.51365e-07
2.49306e-05
9.7199e-08
2.27488e-05
4.4283e-06
1.5653e-05
2.19576e-05
1.03184e-05
2.63429e-05
1.80932e-05
1.19444e-05
2.83203e-05
-6.53213e-06
3.41031e-05
1.45124e-05
-1.16724e-05
3.40426e-05
1.39209e-05
-1.95136e-05
3.23337e-05
-2.02615e-05
3.12882e-05
-1.85871e-05
2.70789e-05
-1.37637e-05
6.92304e-06
2.46801e-05
-6.4683e-06
3.09908e-05
1.30217e-05
-5.37578e-06
-0.0109091
-0.010516
-0.0102091
-0.00999638
-0.0098782
-0.00986134
-0.00997678
-0.0102056
-0.0105423
-0.0109638
-0.0114487
-0.0119467
-0.0123951
-0.0127158
-0.0128545
-0.0128214
-0.0126269
-0.0122846
-0.0118432
-0.0113655
0.00235364
0.00230581
0.00217197
0.00200841
0.0018532
0.00176213
0.00169396
0.0016104
0.00149048
0.00133895
0.00113979
0.000918913
0.000730499
0.000636217
0.000695501
0.000959786
0.00133699
0.00173058
0.00206323
0.00227842
-0.00234052
-0.00209911
-0.0019073
-0.00176599
-0.00171156
-0.00176341
-0.00188807
-0.00203421
-0.0022485
-0.00250078
-0.00282943
-0.00318028
-0.00348645
-0.00366348
-0.00370732
-0.00364034
-0.00346179
-0.00319111
-0.00289399
-0.00260493
0.00288351
0.00295147
0.00297954
0.00300007
0.00300679
0.00300895
0.00294362
0.00286754
0.00270321
0.00251348
0.00218859
0.00181978
0.00150816
0.00137021
0.00148934
0.00174231
0.00207622
0.00237927
0.00261392
0.00277967
-0.000471665
-0.000319631
-0.000243257
-0.000193001
-0.000228158
-0.000241989
-0.000301809
-0.000346539
-0.000499197
-0.00069122
-0.00110665
-0.00161103
-0.00204743
-0.00229
-0.00232568
-0.0021516
-0.00179668
-0.00138724
-0.00100288
-0.000691486
0.00199993
0.00210435
0.00215703
0.0022045
0.00220218
0.00219315
0.00211118
0.00204069
0.00184707
0.00162661
0.00112016
0.000588445
0.000206601
0.000132523
0.000333596
0.000684525
0.00106183
0.00139222
0.0016599
0.00186189
4.93003e-05
9.58854e-05
0.000101871
0.000107852
8.61372e-05
0.000108656
7.86189e-05
7.16924e-05
-7.31456e-05
-0.000279192
-0.00087335
-0.00150565
-0.00191233
-0.0019849
-0.00170552
-0.00126189
-0.000806752
-0.000448988
-0.00019418
-3.49877e-05
0.00123945
0.00131092
0.0013446
0.00137951
0.00135589
0.00134261
0.00126624
0.00120075
0.00101467
0.000766781
0.00012504
-0.000461951
-0.000721072
-0.000551254
-0.000172817
0.000225965
0.000581481
0.000834964
0.001022
0.00115099
0.000165664
0.000176945
0.000165581
0.000167532
0.000160317
0.000184627
0.000164787
0.000159795
3.77517e-05
-0.000181653
-0.000853311
-0.00147903
-0.00168318
-0.00142926
-0.000960104
-0.000556648
-0.000234789
-4.26462e-05
7.97426e-05
0.000141064
0.00073355
0.000774225
0.000790888
0.000807007
0.00078464
0.000769629
0.000710229
0.000655257
0.000512546
0.000286711
-0.000332737
-0.000831708
-0.000835999
-0.000541275
-0.00012888
0.000162219
0.000389668
0.000520126
0.000620281
0.000685231
0.000173753
0.000178252
0.000168544
0.000174693
0.000169501
0.00018786
0.000173283
0.000177091
9.59441e-05
-4.86254e-05
-0.000619321
-0.00114477
-0.0010815
-0.000782177
-0.000403239
-0.000173555
1.44887e-06
8.26996e-05
0.000141011
0.00016441
0.000430761
0.000451899
0.000458042
0.000464463
0.000445525
0.000432634
0.000389101
0.000352991
0.000262214
0.000135983
-0.000325615
-0.000614018
-0.000499249
-0.000233851
3.45134e-05
0.000168562
0.000279533
0.000327554
0.00037694
0.000405676
0.000152453
0.000157455
0.000152799
0.000160406
0.000155833
0.000171408
0.000162287
0.000188653
0.000154278
0.000179095
-0.000198636
-0.000570798
-0.000483423
-0.000323685
-0.000116347
-2.62542e-05
6.41106e-05
9.60804e-05
0.000131547
0.00014404
0.000258869
0.000269588
0.000270437
0.000272938
0.000256801
0.000246761
0.000213973
0.00019518
0.000148643
0.000139646
-8.14646e-05
-0.000196595
-0.000123414
-8.76045e-06
0.000111648
0.000142053
0.0001928
0.000204984
0.000232539
0.000245045
0.00012527
0.000131228
0.000130188
0.000137446
0.000133662
0.000147318
0.00014308
0.000184148
0.000190691
0.000364635
0.00022894
-0.000145588
-0.000153529
-0.000139028
-4.83228e-05
-1.12754e-05
5.30524e-05
7.39183e-05
0.000104485
0.000115422
0.000164099
0.000169849
0.000168653
0.000169443
0.000155849
0.000147521
0.000120675
0.000108155
7.69257e-05
0.000143837
0.000251288
8.65095e-06
-2.26976e-05
-1.51502e-05
5.36416e-05
6.68287e-05
0.000113585
0.000124192
0.000147259
0.000154888
0.000101148
0.000106735
0.000107258
0.000113032
0.00010981
0.000119364
0.000115714
0.000140683
0.000130076
0.000185798
0.000109195
-6.04891e-05
-5.43762e-05
-7.58584e-05
-1.4945e-05
-4.85502e-06
4.17755e-05
5.61007e-05
8.19789e-05
9.14338e-05
0.00011299
0.000115987
0.000114295
0.000114307
0.000103341
9.62346e-05
7.52671e-05
6.23417e-05
4.08013e-05
4.28285e-05
7.52136e-05
4.8017e-06
2.92537e-05
2.15504e-05
6.1289e-05
5.77331e-05
8.59307e-05
8.76551e-05
0.000103235
0.000106864
8.27594e-05
8.69739e-05
8.77732e-05
9.17051e-05
8.875e-05
9.44323e-05
9.1715e-05
0.000103891
9.66025e-05
0.000106262
6.3787e-05
-2.5324e-05
-1.70163e-05
-4.10223e-05
2.71086e-07
3.27996e-06
3.7592e-05
4.7024e-05
6.73274e-05
7.44339e-05
8.50112e-05
8.64484e-05
8.49475e-05
8.45741e-05
7.60895e-05
7.02923e-05
5.46622e-05
4.27416e-05
2.70417e-05
1.69811e-05
3.10745e-05
9.09997e-06
3.96901e-05
3.10168e-05
5.90324e-05
5.1231e-05
6.98516e-05
6.83265e-05
7.91412e-05
8.06763e-05
6.98978e-05
7.2424e-05
7.30294e-05
7.52879e-05
7.22399e-05
7.50733e-05
7.26906e-05
7.72763e-05
7.36265e-05
7.00963e-05
4.90543e-05
-5.26912e-06
7.92119e-07
-1.92855e-05
9.77908e-06
1.07439e-05
3.62923e-05
4.28194e-05
5.83248e-05
6.31129e-05
6.92029e-05
6.96028e-05
6.86034e-05
6.80194e-05
6.15908e-05
5.7195e-05
4.59752e-05
3.58826e-05
2.5587e-05
1.41939e-05
2.27681e-05
1.41822e-05
4.08137e-05
3.29621e-05
5.37223e-05
4.62753e-05
5.94312e-05
5.7469e-05
6.53561e-05
6.58868e-05
6.14811e-05
6.22943e-05
6.27956e-05
6.36611e-05
6.05222e-05
6.14045e-05
5.8947e-05
5.90497e-05
5.80877e-05
5.02212e-05
4.19245e-05
6.4155e-06
1.25983e-05
-2.68265e-06
1.84679e-05
1.85801e-05
3.71814e-05
4.17759e-05
5.32098e-05
5.60425e-05
6.02349e-05
5.95133e-05
5.91815e-05
5.8325e-05
5.32187e-05
5.00304e-05
4.28597e-05
3.39877e-05
2.8648e-05
1.76855e-05
2.4813e-05
1.83578e-05
3.9599e-05
3.21132e-05
4.83668e-05
4.28156e-05
5.24237e-05
5.12661e-05
5.72341e-05
5.70428e-05
5.62787e-05
5.54004e-05
5.61584e-05
5.60166e-05
5.26394e-05
5.25049e-05
4.99804e-05
4.71275e-05
4.81897e-05
3.89211e-05
3.79929e-05
1.39603e-05
2.16697e-05
1.01431e-05
2.60463e-05
2.59359e-05
3.88568e-05
4.23414e-05
5.05279e-05
5.16469e-05
5.50824e-05
5.31223e-05
5.36071e-05
5.22742e-05
4.80103e-05
4.61965e-05
4.1259e-05
3.34886e-05
3.27439e-05
2.12313e-05
2.93486e-05
2.09099e-05
3.83139e-05
3.12429e-05
4.40174e-05
4.07443e-05
4.77866e-05
4.78862e-05
5.22941e-05
5.15358e-05
5.29671e-05
5.08585e-05
5.22672e-05
5.09192e-05
4.7721e-05
4.71627e-05
4.50236e-05
3.9741e-05
4.26665e-05
3.24603e-05
3.67619e-05
1.91963e-05
2.86966e-05
1.89336e-05
3.18712e-05
3.17826e-05
4.0529e-05
4.36276e-05
4.8911e-05
4.90365e-05
5.22831e-05
4.83887e-05
5.03691e-05
4.85062e-05
4.43578e-05
4.36205e-05
4.02895e-05
3.27383e-05
3.5772e-05
2.35492e-05
3.3219e-05
2.26218e-05
3.79784e-05
3.05831e-05
4.14404e-05
4.0063e-05
4.44485e-05
4.62944e-05
4.94224e-05
4.78691e-05
5.17091e-05
4.75079e-05
5.02149e-05
4.76238e-05
4.40291e-05
4.47862e-05
4.20467e-05
3.52025e-05
4.12825e-05
2.83376e-05
3.78402e-05
2.17042e-05
3.39095e-05
2.49347e-05
3.54991e-05
3.65e-05
4.14559e-05
4.51159e-05
4.78684e-05
4.67858e-05
5.02583e-05
4.48843e-05
4.8731e-05
4.55415e-05
4.17268e-05
4.22017e-05
3.98402e-05
3.08201e-05
3.80812e-05
2.3853e-05
3.64551e-05
2.3115e-05
3.87906e-05
2.96088e-05
3.98361e-05
3.99218e-05
4.22395e-05
4.59016e-05
4.70788e-05
4.5384e-05
5.14916e-05
4.3873e-05
4.94738e-05
4.61542e-05
4.10206e-05
4.3269e-05
4.07101e-05
3.19703e-05
4.16099e-05
2.56365e-05
3.97841e-05
2.2826e-05
3.78243e-05
2.79261e-05
3.81455e-05
4.00464e-05
4.07322e-05
4.66322e-05
4.77496e-05
4.47077e-05
4.96556e-05
4.12331e-05
4.80105e-05
4.35466e-05
3.84968e-05
4.2079e-05
3.91726e-05
2.81956e-05
4.06516e-05
2.17093e-05
3.97805e-05
2.15826e-05
3.97744e-05
2.8399e-05
3.83128e-05
4.06544e-05
3.97977e-05
4.61151e-05
4.53026e-05
4.22913e-05
5.145e-05
4.0951e-05
4.9776e-05
4.42721e-05
3.82095e-05
4.34479e-05
3.98471e-05
2.82577e-05
4.32476e-05
2.25651e-05
4.25482e-05
2.20296e-05
4.13432e-05
2.83811e-05
3.90606e-05
4.23794e-05
3.9768e-05
4.82612e-05
4.65812e-05
4.25434e-05
5.0195e-05
3.61714e-05
4.8332e-05
4.24211e-05
3.35835e-05
4.30785e-05
3.84147e-05
2.3859e-05
4.31212e-05
1.77658e-05
4.28079e-05
1.83841e-05
4.13704e-05
2.56627e-05
3.64878e-05
4.21221e-05
3.57809e-05
4.68261e-05
4.39848e-05
3.77321e-05
5.18766e-05
3.6743e-05
5.10404e-05
4.26168e-05
3.42969e-05
4.50131e-05
3.88357e-05
2.32615e-05
4.64055e-05
1.75061e-05
4.63873e-05
1.83558e-05
4.45213e-05
2.61214e-05
3.88368e-05
4.41562e-05
3.68572e-05
5.01683e-05
4.49983e-05
3.92627e-05
5.07322e-05
2.97674e-05
5.02928e-05
4.01382e-05
2.70002e-05
4.56238e-05
3.72119e-05
1.64312e-05
4.67159e-05
1.05642e-05
4.67072e-05
1.19928e-05
4.36903e-05
2.01488e-05
3.39289e-05
4.31192e-05
3.02403e-05
4.85808e-05
4.11044e-05
3.18321e-05
5.33375e-05
3.03483e-05
5.35149e-05
4.04328e-05
2.73034e-05
4.81544e-05
3.72067e-05
1.61181e-05
5.01186e-05
1.01793e-05
5.03499e-05
1.19234e-05
4.73142e-05
2.03355e-05
3.73075e-05
4.61751e-05
3.12222e-05
5.2485e-05
4.23722e-05
3.31739e-05
5.26672e-05
1.79311e-05
5.53868e-05
3.77315e-05
1.42558e-05
5.19093e-05
3.55345e-05
2.02479e-06
5.34591e-05
-3.1191e-06
5.33461e-05
-8.33943e-07
4.82415e-05
8.27984e-06
2.94455e-05
4.57122e-05
1.90866e-05
5.26631e-05
3.7491e-05
2.09861e-05
5.47177e-05
1.95869e-05
5.80705e-05
3.61778e-05
1.57305e-05
5.4263e-05
3.37174e-05
3.42388e-06
5.5418e-05
-2.31505e-06
5.53116e-05
1.27524e-07
5.04231e-05
9.15375e-06
3.35576e-05
4.72714e-05
2.07561e-05
5.58446e-05
3.6869e-05
2.31602e-05
5.79537e-05
-4.86514e-06
6.83218e-05
3.10613e-05
-1.29671e-05
6.82105e-05
3.02375e-05
-2.73945e-05
6.65732e-05
-3.02086e-05
6.52993e-05
-2.68115e-05
5.72052e-05
-1.70859e-05
2.13729e-05
5.15075e-05
-3.27004e-06
6.31487e-05
2.89066e-05
-1.45633e-06
-0.0134249
-0.0128746
-0.0124238
-0.0120946
-0.0119004
-0.0118694
-0.0120194
-0.0123289
-0.0127877
-0.0133608
-0.0140131
-0.0146772
-0.0152719
-0.0157029
-0.0159024
-0.0158776
-0.0156427
-0.0152169
-0.0146575
-0.0140373
0.00197885
0.00203363
0.00196403
0.00182674
0.00166692
0.00154955
0.00141373
0.00124003
0.00100707
0.000724578
0.000380786
1.53005e-05
-0.000296527
-0.000470369
-0.000427962
-0.000118042
0.000362156
0.000899117
0.00139347
0.0017671
-0.00274066
-0.00242699
-0.00220458
-0.0020642
-0.00204514
-0.0021484
-0.00234202
-0.00257783
-0.00290859
-0.00330237
-0.00379991
-0.00432286
-0.00476938
-0.00501526
-0.00505033
-0.00487553
-0.00452222
-0.0040519
-0.0035657
-0.00311988
0.00335597
0.00343741
0.00345957
0.00346544
0.00344473
0.00340306
0.00327898
0.00312585
0.00285001
0.00251687
0.00200471
0.00145177
0.00102041
0.000878609
0.00112202
0.00156239
0.00210546
0.0025916
0.0029611
0.00321085
-0.000299496
-0.000136287
-6.15974e-05
-2.15852e-05
-7.98436e-05
-0.00011856
-0.000226436
-0.000337374
-0.00060108
-0.000947461
-0.00158223
-0.00229316
-0.00282854
-0.0030429
-0.00292095
-0.00253104
-0.00197014
-0.00140263
-0.000916082
-0.000547049
0.00244851
0.00257055
0.00262892
0.0026776
0.00265651
0.00262452
0.0024943
0.00235877
0.00205031
0.00166636
0.000917225
0.000189909
-0.000245825
-0.000201513
0.000192084
0.000740081
0.00127263
0.00170727
0.00204099
0.00228462
0.000275233
0.00033583
0.000345048
0.000349543
0.000318529
0.000327483
0.000260111
0.000199958
-5.34541e-05
-0.000425943
-0.00128517
-0.00210774
-0.00253408
-0.00245823
-0.00197521
-0.00135414
-0.000770878
-0.000331973
-2.42485e-05
0.000169554
0.00156324
0.00165339
0.00169442
0.00173223
0.0016963
0.00166719
0.00155208
0.00143282
0.00113983
0.000723525
-0.000187652
-0.000935401
-0.00115383
-0.000826253
-0.000259689
0.000276861
0.000731023
0.00104934
0.00128487
0.00144948
0.000358583
0.000381698
0.00037276
0.000377283
0.000362212
0.000378111
0.000329125
0.000282199
6.63312e-05
-0.000313438
-0.00125575
-0.00202595
-0.00215403
-0.00173251
-0.00109422
-0.00057817
-0.000175438
6.81318e-05
0.000229276
0.000316972
0.000953648
0.00100712
0.00102787
0.00104556
0.00101412
0.000988606
0.000900399
0.000805582
0.000578026
0.000204811
-0.000668105
-0.00127035
-0.0011738
-0.000726191
-0.000176224
0.000199467
0.000491662
0.000663826
0.000798529
0.000887919
0.000321251
0.000333955
0.000325557
0.000334267
0.000322878
0.000336297
0.000301012
0.000277897
0.000128879
-0.000137605
-0.000940705
-0.00155102
-0.00137485
-0.000946485
-0.000455242
-0.000162806
6.34282e-05
0.000175314
0.000259979
0.000300379
0.000578231
0.00060725
0.000615102
0.000622745
0.000596749
0.000577442
0.000514336
0.000454289
0.000308092
8.25677e-05
-0.000574784
-0.000902249
-0.000684438
-0.000317135
3.37379e-05
0.000209023
0.000358335
0.000428326
0.000499459
0.000542439
0.000260694
0.000271456
0.000267633
0.000277473
0.000268186
0.000281889
0.000259847
0.000275869
0.000203458
0.000168714
-0.00037258
-0.000786624
-0.000613904
-0.000387312
-0.000117849
-1.1224e-06
0.000119996
0.000167989
0.000221161
0.000244243
0.00035914
0.000374859
0.000376308
0.000379909
0.000358251
0.000344694
0.00029914
0.000269885
0.00019503
0.000143176
-0.000191038
-0.000320285
-0.000182528
-2.46164e-05
0.000136337
0.000179953
0.00025305
0.000275612
0.000317493
0.000338343
0.000204296
0.000214503
0.000214092
0.000223276
0.000215894
0.000229561
0.000217801
0.000259717
0.000252133
0.000421956
0.000204934
-0.000226876
-0.000192568
-0.000160991
-3.68741e-05
9.69603e-06
9.57418e-05
0.000126091
0.000170137
0.000188314
0.000234889
0.00024403
0.000242997
0.000244725
0.000226687
0.000216321
0.000180392
0.000164038
0.000118697
0.000186054
0.000272061
-3.04842e-05
-4.08538e-05
-2.51783e-05
7.02668e-05
9.02988e-05
0.000155638
0.000173104
0.000207398
0.000220593
0.000160188
0.000168883
0.000169838
0.000177111
0.000170972
0.000180835
0.000171903
0.000198506
0.000178823
0.000238775
0.000132444
-8.75824e-05
-6.84622e-05
-9.14644e-05
-6.59523e-06
8.38982e-06
7.30753e-05
9.41748e-05
0.000130982
0.000145655
0.000165806
0.0001711
0.000169385
0.000170098
0.000155515
0.000146937
0.00011909
0.0001033
7.25536e-05
7.31838e-05
9.705e-05
-5.51062e-06
3.07825e-05
2.02948e-05
7.83999e-05
7.65414e-05
0.000118708
0.00012441
0.000148568
0.000155878
0.000128849
0.000135175
0.000136194
0.00014114
0.000135702
0.000141436
0.000134723
0.000147086
0.000133823
0.000142176
8.57871e-05
-3.3463e-05
-1.69473e-05
-4.68385e-05
1.12828e-05
1.60304e-05
6.39265e-05
7.75626e-05
0.000106211
0.000116845
0.000126922
0.00012981
0.000128205
0.00012826
0.000116829
0.000109835
8.90077e-05
7.42415e-05
5.21644e-05
3.81278e-05
4.8125e-05
9.64049e-06
5.01854e-05
3.6636e-05
7.78547e-05
6.93621e-05
9.81418e-05
9.86741e-05
0.000115869
0.00011973
0.000107855
0.000111622
0.000112294
0.000115106
0.000109856
0.00011245
0.000106913
0.000110536
0.000103051
9.58339e-05
6.82075e-05
-4.34535e-06
8.28821e-06
-1.76759e-05
2.37103e-05
2.4889e-05
6.04919e-05
6.95533e-05
9.12699e-05
9.82808e-05
0.000104501
0.000105635
0.000104538
0.00010411
9.52489e-05
8.98746e-05
7.47927e-05
6.19325e-05
4.75825e-05
3.15181e-05
3.86659e-05
2.03861e-05
5.53934e-05
4.27911e-05
7.34023e-05
6.46151e-05
8.52644e-05
8.44342e-05
9.70673e-05
9.8984e-05
9.44638e-05
9.57345e-05
9.62743e-05
9.72834e-05
9.21403e-05
9.26061e-05
8.76123e-05
8.60329e-05
8.29024e-05
7.06959e-05
5.99619e-05
1.27015e-05
2.46975e-05
4.43757e-06
3.48833e-05
3.46373e-05
6.05916e-05
6.67858e-05
8.27608e-05
8.68462e-05
9.15917e-05
9.09074e-05
9.06003e-05
8.96111e-05
8.24013e-05
7.84527e-05
6.85084e-05
5.69091e-05
4.94951e-05
3.38237e-05
4.13889e-05
2.80306e-05
5.63392e-05
4.46164e-05
6.85348e-05
6.17839e-05
7.69264e-05
7.65865e-05
8.60614e-05
8.65489e-05
8.63116e-05
8.51383e-05
8.60815e-05
8.57131e-05
8.04422e-05
7.98929e-05
7.53183e-05
7.02744e-05
7.06069e-05
5.67886e-05
5.6078e-05
2.3765e-05
3.7031e-05
2.13357e-05
4.44622e-05
4.39304e-05
6.20879e-05
6.67677e-05
7.81909e-05
7.9815e-05
8.41475e-05
8.15093e-05
8.22981e-05
8.04942e-05
7.43146e-05
7.20453e-05
6.50363e-05
5.44942e-05
5.34367e-05
3.70552e-05
4.72069e-05
3.28036e-05
5.65385e-05
4.56603e-05
6.46107e-05
6.05877e-05
7.16161e-05
7.25897e-05
7.94823e-05
7.88463e-05
8.13036e-05
7.81516e-05
8.01172e-05
7.81174e-05
7.30951e-05
7.23114e-05
6.85131e-05
6.05411e-05
6.41353e-05
4.90184e-05
5.56097e-05
3.13487e-05
4.65161e-05
3.29421e-05
5.17868e-05
5.148e-05
6.3784e-05
6.80877e-05
7.55064e-05
7.55805e-05
8.01101e-05
7.46578e-05
7.7503e-05
7.47685e-05
6.87038e-05
6.7935e-05
6.29687e-05
5.23643e-05
5.67557e-05
3.9164e-05
5.24406e-05
3.59076e-05
5.75065e-05
4.63639e-05
6.24988e-05
6.0915e-05
6.78729e-05
7.09756e-05
7.5687e-05
7.37414e-05
7.92249e-05
7.3014e-05
7.69673e-05
7.32221e-05
6.76833e-05
6.87814e-05
6.45118e-05
5.44069e-05
6.28279e-05
4.40337e-05
5.78808e-05
3.51455e-05
5.36373e-05
4.07603e-05
5.64101e-05
5.76569e-05
6.46509e-05
6.99322e-05
7.3823e-05
7.21488e-05
7.7441e-05
6.94787e-05
7.51019e-05
7.04815e-05
6.45885e-05
6.57266e-05
6.19025e-05
4.91453e-05
5.96653e-05
3.89463e-05
5.70579e-05
3.70094e-05
5.95767e-05
4.61511e-05
6.12634e-05
6.17364e-05
6.52701e-05
7.08958e-05
7.27104e-05
7.01529e-05
7.87141e-05
6.7733e-05
7.57927e-05
7.0768e-05
6.32262e-05
6.67411e-05
6.2636e-05
4.97734e-05
6.37729e-05
4.04226e-05
6.11994e-05
3.66831e-05
5.90961e-05
4.45789e-05
5.96741e-05
6.24108e-05
6.35084e-05
7.19719e-05
7.33081e-05
6.89931e-05
7.66628e-05
6.41682e-05
7.41597e-05
6.75573e-05
5.98481e-05
6.54368e-05
6.08022e-05
4.50444e-05
6.31548e-05
3.56861e-05
6.18537e-05
3.51887e-05
6.17128e-05
4.50321e-05
5.98313e-05
6.33784e-05
6.21276e-05
7.15885e-05
7.0384e-05
6.58235e-05
7.86803e-05
6.31334e-05
7.6178e-05
6.80445e-05
5.88386e-05
6.70436e-05
6.13739e-05
4.43336e-05
6.64215e-05
3.59246e-05
6.54926e-05
3.53189e-05
6.39905e-05
4.48863e-05
6.0699e-05
6.57127e-05
6.17405e-05
7.42481e-05
7.15911e-05
6.55383e-05
7.73524e-05
5.70582e-05
7.47533e-05
6.56785e-05
5.29698e-05
6.68607e-05
5.96236e-05
3.86403e-05
6.68103e-05
2.9858e-05
6.64391e-05
3.07274e-05
6.44619e-05
4.14374e-05
5.76994e-05
6.56871e-05
5.67693e-05
7.29166e-05
6.84085e-05
5.95573e-05
7.93408e-05
5.67187e-05
7.80281e-05
6.55582e-05
5.27761e-05
6.9358e-05
5.98785e-05
3.68727e-05
7.10154e-05
2.8497e-05
7.10858e-05
2.98635e-05
6.84684e-05
4.13138e-05
6.01003e-05
6.82953e-05
5.72458e-05
7.69682e-05
6.9192e-05
6.04105e-05
7.81983e-05
4.79365e-05
7.75959e-05
6.24337e-05
4.36259e-05
7.05337e-05
5.7839e-05
2.80958e-05
7.20265e-05
1.96105e-05
7.21603e-05
2.17701e-05
6.80031e-05
3.37789e-05
5.43403e-05
6.73728e-05
4.90166e-05
7.55535e-05
6.43969e-05
5.12388e-05
8.13004e-05
4.71964e-05
8.17205e-05
6.23114e-05
4.24809e-05
7.40405e-05
5.75067e-05
2.60911e-05
7.65808e-05
1.75727e-05
7.70269e-05
2.02574e-05
7.25857e-05
3.27161e-05
5.76292e-05
7.11175e-05
4.88994e-05
8.03788e-05
6.52653e-05
5.14643e-05
8.0724e-05
3.20782e-05
8.44526e-05
5.88281e-05
2.65821e-05
7.90636e-05
5.53026e-05
8.86428e-06
8.11069e-05
1.24784e-06
8.11428e-05
4.64801e-06
7.40855e-05
1.79622e-05
4.83839e-05
7.08026e-05
3.41853e-05
8.10298e-05
5.9149e-05
3.67118e-05
8.33103e-05
3.21852e-05
8.82985e-05
5.65376e-05
2.62644e-05
8.27839e-05
5.28383e-05
8.25392e-06
8.42785e-05
7.6879e-08
8.42946e-05
3.77887e-06
7.7176e-05
1.7118e-05
5.22993e-05
7.29639e-05
3.44078e-05
8.52651e-05
5.7748e-05
3.74826e-05
8.68667e-05
4.44578e-06
0.000100278
5.04265e-05
-6.21457e-06
9.91134e-05
4.87066e-05
-2.66411e-05
9.73132e-05
-3.15849e-05
9.59714e-05
-2.67795e-05
8.4953e-05
-1.27005e-05
3.83505e-05
7.77412e-05
7.1943e-06
9.36389e-05
4.81868e-05
9.69025e-06
-0.014827
-0.0142003
-0.0136847
-0.0133077
-0.0130909
-0.0130704
-0.0132545
-0.013621
-0.0141567
-0.0148197
-0.0155664
-0.0163189
-0.0169847
-0.0174603
-0.0176731
-0.017631
-0.0173516
-0.016861
-0.0162243
-0.0155214
0.00147198
0.0015786
0.00154575
0.00142911
0.00127847
0.0011528
0.000976566
0.000745237
0.000436596
6.66207e-05
-0.000370959
-0.000824642
-0.00120431
-0.00141325
-0.00136276
-0.00100941
-0.000460713
0.000159818
0.000740297
0.00119343
-0.00309115
-0.00272903
-0.00248352
-0.00233989
-0.00234506
-0.00248195
-0.00272345
-0.0030241