/*--------------------------------*- C++ -*----------------------------------*\
| =========                 |                                                 |
| \\      /  F ield         | OpenFOAM: The Open Source CFD Toolbox           |
|  \\    /   O peration     | Version:  2.4.0                                 |
|   \\  /    A nd           | Web:      www.OpenFOAM.org                      |
|    \\/     M anipulation  |                                                 |
\*---------------------------------------------------------------------------*/
FoamFile
{
    version     2.0;
    format      ascii;
    class       volScalarField;
    location    "860";
    object      p;
}
// * * * * * * * * * * * * * * * * * * * * * * * * * * * * * * * * * * * * * //

dimensions      [0 2 -2 0 0 0 0];

internalField   nonuniform List<scalar> 
283312
(
-0.0062698
-0.00632803
-0.00656757
-0.00690845
-0.00726268
-0.0075611
-0.00779554
-0.00796047
-0.00808802
-0.00820148
-0.00832088
-0.00843275
-0.00850504
-0.00848202
-0.00833057
-0.00805785
-0.00767464
-0.00721795
-0.00676918
-0.00642669
0.00215305
0.00164906
0.00122071
0.000949313
0.000848019
0.000911851
0.00105347
0.00119346
0.00130361
0.00139133
0.00145891
0.00153808
0.00166687
0.00186793
0.00215451
0.0025256
0.0028428
0.00299606
0.00292138
0.00261718
-0.00230084
-0.00215176
-0.00193005
-0.00169109
-0.00149981
-0.00140383
-0.00138657
-0.00139424
-0.00144487
-0.00148831
-0.00152027
-0.00149986
-0.00142785
-0.00132603
-0.00127674
-0.00137921
-0.00161513
-0.00190579
-0.00216622
-0.00230979
0.00148386
0.0016553
0.00179834
0.00191274
0.00199556
0.00206396
0.0020705
0.0020764
0.0020425
0.00205234
0.00206871
0.00211617
0.00214706
0.00210896
0.00198652
0.00174996
0.00150256
0.00131968
0.00126417
0.00133653
-0.00074408
-0.000546446
-0.000430242
-0.000352515
-0.000349744
-0.000337616
-0.000349765
-0.000336811
-0.000367569
-0.000345712
-0.000356155
-0.00041203
-0.000585785
-0.000895917
-0.0013141
-0.00165024
-0.00174219
-0.00160444
-0.00132281
-0.00100903
0.0012049
0.00131408
0.00137169
0.0014171
0.0014307
0.00143789
0.00140325
0.00138992
0.00132513
0.00133393
0.00127649
0.00115179
0.000879318
0.000526151
0.000265094
0.000194651
0.000321347
0.000562122
0.000825891
0.00104856
-0.000150011
-0.000110701
-0.000103957
-9.83361e-05
-0.000109738
-8.47677e-05
-8.52822e-05
-5.68185e-05
-8.85977e-05
-6.48369e-05
-0.000182348
-0.000455258
-0.000865873
-0.00126904
-0.00140014
-0.00124847
-0.000936778
-0.000624542
-0.000382348
-0.000229355
0.000764045
0.000812925
0.00083631
0.000861093
0.0008493
0.000845617
0.000807985
0.000787508
0.000718448
0.000707508
0.000546893
0.000231524
-0.000173217
-0.000362322
-0.000309442
-7.78939e-05
0.000206562
0.000433314
0.000595534
0.000699041
1.35648e-07
1.74463e-06
-9.24002e-06
-1.09298e-05
-1.23732e-05
9.55757e-06
1.14043e-05
3.13311e-05
3.49622e-06
6.60322e-06
-0.000188952
-0.000597243
-0.00100268
-0.00108576
-0.000870735
-0.000579577
-0.000314751
-0.000150331
-5.4181e-05
-1.20391e-05
0.00044192
0.000466409
0.000477133
0.000487564
0.000474696
0.00046628
0.000435831
0.000413487
0.0003601
0.000342698
0.000161457
-0.00021037
-0.000462738
-0.000448542
-0.000215783
9.74694e-06
0.0001946
0.000300047
0.00037089
0.00041253
4.42301e-05
4.21421e-05
3.322e-05
3.50463e-05
3.4291e-05
4.93479e-05
4.97053e-05
6.60111e-05
4.88436e-05
7.34377e-05
-0.00010419
-0.000535005
-0.000716971
-0.0006344
-0.000390602
-0.000205292
-6.71562e-05
-4.11658e-06
3.28173e-05
4.3446e-05
0.000251189
0.000262906
0.000266687
0.000269809
0.000258625
0.000249853
0.000226249
0.000208643
0.000173237
0.000192174
5.50924e-05
-0.000227751
-0.000332366
-0.000226201
-4.54249e-05
6.89716e-05
0.000154735
0.000191217
0.000221413
0.000237343
5.52042e-05
5.51361e-05
5.06224e-05
5.40526e-05
5.28563e-05
6.41199e-05
6.37581e-05
8.73127e-05
8.3935e-05
0.000190269
7.55025e-05
-0.000272265
-0.000356341
-0.000290635
-0.000145008
-6.32316e-05
4.77887e-06
2.88377e-05
4.88259e-05
5.33997e-05
0.000145656
0.000150815
0.000151002
0.000151286
0.000141501
0.000133708
0.000114549
0.000102379
8.1719e-05
0.000139065
9.81019e-05
-5.16318e-05
-0.000108762
-5.34793e-05
3.36768e-05
7.06545e-05
0.000108291
0.000118101
0.000133059
0.000138849
5.29586e-05
5.46573e-05
5.31648e-05
5.67084e-05
5.54984e-05
6.44781e-05
6.47683e-05
9.32978e-05
0.000105264
0.000280156
0.000267025
-5.06556e-05
-0.000137032
-0.000139588
-7.50591e-05
-3.47125e-05
1.12376e-05
2.69905e-05
4.41471e-05
4.90275e-05
8.91172e-05
9.13112e-05
9.00937e-05
8.93021e-05
8.09552e-05
7.40748e-05
5.76994e-05
4.70771e-05
2.90054e-05
8.60759e-05
0.000195901
3.70554e-05
-1.94072e-05
-1.94029e-05
2.15384e-05
3.49315e-05
6.34537e-05
7.02506e-05
8.19812e-05
8.50417e-05
4.63849e-05
4.85737e-05
4.84697e-05
5.12992e-05
5.0193e-05
5.61822e-05
5.59809e-05
7.23543e-05
6.84967e-05
0.000106985
6.6469e-05
-3.0777e-05
-4.01419e-05
-5.4868e-05
-2.08963e-05
-1.19102e-05
1.47792e-05
2.35178e-05
3.72814e-05
4.18367e-05
5.95438e-05
6.02873e-05
5.87822e-05
5.7686e-05
5.09601e-05
4.50855e-05
3.22854e-05
2.18697e-05
9.77318e-06
9.09341e-06
4.07783e-05
9.83193e-06
1.8897e-05
1.65506e-05
3.63688e-05
3.51598e-05
4.91119e-05
4.92261e-05
5.62373e-05
5.7146e-05
3.9587e-05
4.1407e-05
4.16901e-05
4.35385e-05
4.24349e-05
4.58674e-05
4.5815e-05
5.38751e-05
5.14657e-05
5.81537e-05
3.3568e-05
-1.54747e-05
-1.68323e-05
-3.05274e-05
-8.36359e-06
-4.55607e-06
1.45919e-05
2.06587e-05
3.16242e-05
3.53769e-05
4.37978e-05
4.38951e-05
4.26022e-05
4.15075e-05
3.63623e-05
3.16349e-05
2.21421e-05
1.32285e-05
4.42236e-06
-2.43806e-06
1.15557e-05
6.41748e-06
2.27489e-05
2.05366e-05
3.41711e-05
3.02804e-05
3.89032e-05
3.74303e-05
4.21052e-05
4.21986e-05
3.41215e-05
3.52212e-05
3.54742e-05
3.64247e-05
3.51148e-05
3.67191e-05
3.64952e-05
3.97681e-05
3.90729e-05
3.78458e-05
2.53903e-05
-5.23283e-06
-6.2103e-06
-1.71477e-05
-1.94362e-06
4.37064e-07
1.47182e-05
1.92833e-05
2.78212e-05
3.05386e-05
3.50639e-05
3.48391e-05
3.39457e-05
3.2967e-05
2.91553e-05
2.55998e-05
1.88312e-05
1.17238e-05
5.8432e-06
-9.16713e-07
6.80755e-06
6.977e-06
2.18233e-05
1.97565e-05
2.9819e-05
2.60935e-05
3.20275e-05
3.05799e-05
3.399e-05
3.38454e-05
3.02553e-05
3.05459e-05
3.07475e-05
3.09612e-05
2.94889e-05
2.98326e-05
2.91995e-05
2.96649e-05
3.00585e-05
2.61781e-05
2.10647e-05
7.85686e-07
1.06879e-06
-6.94469e-06
3.90347e-06
5.45061e-06
1.58487e-05
1.92378e-05
2.56047e-05
2.73448e-05
3.01487e-05
2.95197e-05
2.90789e-05
2.81553e-05
2.52097e-05
2.26134e-05
1.84069e-05
1.24991e-05
9.31058e-06
3.23404e-06
8.50203e-06
8.23303e-06
2.00094e-05
1.7612e-05
2.55637e-05
2.28963e-05
2.72467e-05
2.64455e-05
2.91237e-05
2.88115e-05
2.77348e-05
2.72064e-05
2.75203e-05
2.72579e-05
2.55556e-05
2.5211e-05
2.42467e-05
2.28781e-05
2.39373e-05
1.92596e-05
1.82228e-05
4.7238e-06
6.75303e-06
9.90057e-07
9.01668e-06
1.00773e-05
1.72714e-05
1.98442e-05
2.44602e-05
2.52725e-05
2.72919e-05
2.61706e-05
2.61937e-05
2.51852e-05
2.28051e-05
2.12053e-05
1.83585e-05
1.35193e-05
1.28521e-05
6.62531e-06
1.1581e-05
9.01784e-06
1.8407e-05
1.58813e-05
2.20744e-05
2.06813e-05
2.39777e-05
2.39816e-05
2.60768e-05
2.56205e-05
2.59872e-05
2.49976e-05
2.55824e-05
2.47122e-05
2.31238e-05
2.24065e-05
2.1532e-05
1.86811e-05
2.02998e-05
1.52309e-05
1.69631e-05
7.57596e-06
1.11373e-05
6.40977e-06
1.2934e-05
1.36544e-05
1.85882e-05
2.06961e-05
2.37139e-05
2.40463e-05
2.56858e-05
2.36324e-05
2.44621e-05
2.33675e-05
2.10906e-05
2.01359e-05
1.8325e-05
1.39513e-05
1.51972e-05
8.86374e-06
1.398e-05
9.66671e-06
1.75661e-05
1.46414e-05
1.99075e-05
1.9502e-05
2.15968e-05
2.26077e-05
2.42781e-05
2.3473e-05
2.53574e-05
2.33727e-05
2.45189e-05
2.3061e-05
2.12422e-05
2.12586e-05
1.98686e-05
1.62316e-05
1.92495e-05
1.27244e-05
1.72018e-05
8.92796e-06
1.42942e-05
1.01886e-05
1.53476e-05
1.64822e-05
1.93827e-05
2.15419e-05
2.32071e-05
2.28781e-05
2.43534e-05
2.18374e-05
2.35263e-05
2.1811e-05
1.99121e-05
1.95134e-05
1.84014e-05
1.33819e-05
1.6723e-05
9.6448e-06
1.5796e-05
9.84257e-06
1.75832e-05
1.35194e-05
1.8519e-05
1.87837e-05
2.01232e-05
2.20018e-05
2.27507e-05
2.20933e-05
2.52463e-05
2.14808e-05
2.40909e-05
2.24894e-05
1.97619e-05
2.0384e-05
1.91917e-05
1.46755e-05
1.91729e-05
1.13478e-05
1.79595e-05
9.72187e-06
1.65638e-05
1.21729e-05
1.71585e-05
1.85364e-05
1.91129e-05
2.23195e-05
2.33084e-05
2.18298e-05
2.38646e-05
1.99623e-05
2.29892e-05
2.07938e-05
1.83054e-05
1.95056e-05
1.8195e-05
1.23463e-05
1.82125e-05
8.83803e-06
1.75628e-05
8.97726e-06
1.77312e-05
1.26212e-05
1.73316e-05
1.87806e-05
1.8673e-05
2.17813e-05
2.16489e-05
2.03577e-05
2.50883e-05
2.02224e-05
2.41768e-05
2.15142e-05
1.85511e-05
2.04118e-05
1.88144e-05
1.29415e-05
1.98372e-05
9.99962e-06
1.92117e-05
9.61844e-06
1.85488e-05
1.27533e-05
1.78829e-05
1.97567e-05
1.89125e-05
2.31184e-05
2.27039e-05
2.08914e-05
2.40707e-05
1.72673e-05
2.2956e-05
2.03819e-05
1.56969e-05
1.99658e-05
1.79254e-05
1.03423e-05
1.93956e-05
7.09807e-06
1.89721e-05
7.42102e-06
1.82885e-05
1.1124e-05
1.61229e-05
1.93847e-05
1.64097e-05
2.18544e-05
2.10101e-05
1.78055e-05
2.5153e-05
1.83459e-05
2.46811e-05
2.07504e-05
1.68883e-05
2.1092e-05
1.83924e-05
1.06945e-05
2.13679e-05
7.71499e-06
2.10968e-05
8.04795e-06
2.02286e-05
1.19525e-05
1.79765e-05
2.06226e-05
1.77106e-05
2.40068e-05
2.19811e-05
1.94771e-05
2.41561e-05
1.40267e-05
2.37934e-05
1.92361e-05
1.23528e-05
2.11388e-05
1.7437e-05
6.62524e-06
2.11072e-05
3.59164e-06
2.08151e-05
4.23961e-06
1.92917e-05
8.31654e-06
1.46172e-05
1.96851e-05
1.35664e-05
2.2546e-05
1.94877e-05
1.47199e-05
2.58202e-05
1.54953e-05
2.56574e-05
1.97799e-05
1.36873e-05
2.23954e-05
1.76893e-05
7.65556e-06
2.29515e-05
4.57552e-06
2.28191e-05
5.33125e-06
2.14783e-05
9.4632e-06
1.73876e-05
2.16349e-05
1.52233e-05
2.49635e-05
2.08109e-05
1.66268e-05
2.50888e-05
7.58479e-06
2.63958e-05
1.82534e-05
5.38928e-06
2.43559e-05
1.68447e-05
-1.25163e-06
2.46738e-05
-3.72879e-06
2.43283e-05
-2.66726e-06
2.17189e-05
1.89431e-06
1.2026e-05
2.10874e-05
7.47149e-06
2.46145e-05
1.78271e-05
8.76315e-06
2.62146e-05
1.03382e-05
2.75047e-05
1.76162e-05
8.19865e-06
2.5009e-05
1.59318e-05
1.69203e-06
2.51565e-05
-1.26896e-06
2.4863e-05
-2.00641e-07
2.26545e-05
4.18501e-06
1.55159e-05
2.18277e-05
1.01641e-05
2.62349e-05
1.79925e-05
1.17832e-05
2.82831e-05
-6.76436e-06
3.40719e-05
1.44178e-05
-1.19752e-05
3.40252e-05
1.38326e-05
-1.99369e-05
3.23843e-05
-2.0682e-05
3.13143e-05
-1.89724e-05
2.7052e-05
-1.4078e-05
6.78645e-06
2.45747e-05
-6.66853e-06
3.08993e-05
1.29157e-05
-5.60504e-06
-0.010987
-0.0105946
-0.0102888
-0.0100775
-0.00996113
-0.00994882
-0.0100699
-0.0103048
-0.0106477
-0.0110745
-0.0115626
-0.0120611
-0.0125068
-0.0128216
-0.0129549
-0.0129172
-0.0127165
-0.0123685
-0.0119231
-0.0114436
0.00232619
0.00228028
0.0021492
0.00198781
0.00183381
0.00174398
0.00167495
0.00158982
0.00146775
0.00131342
0.00111142
0.000888386
0.000699379
0.000605156
0.000667449
0.000935765
0.00131239
0.00170486
0.00203609
0.00225041
-0.00233645
-0.00210113
-0.00191574
-0.00178009
-0.00173077
-0.00178679
-0.00191449
-0.0020644
-0.00228243
-0.00253856
-0.00287001
-0.00322101
-0.00352361
-0.00369324
-0.0037297
-0.00365454
-0.00346615
-0.0031881
-0.00288644
-0.00259715
0.00291031
0.00297368
0.00299789
0.00301532
0.00302028
0.0030202
0.00295355
0.00287543
0.0027088
0.00251592
0.00218815
0.00181918
0.00151276
0.00138241
0.00150999
0.00176959
0.00210805
0.0024134
0.00264774
0.00281066
-0.000458598
-0.000310913
-0.000238014
-0.000191049
-0.000228566
-0.000244344
-0.000305715
-0.00035262
-0.000508098
-0.000704315
-0.00112501
-0.00163087
-0.00205873
-0.00228685
-0.00231015
-0.00212759
-0.00177022
-0.0013623
-0.00098128
-0.000674108
0.00202444
0.00212606
0.00217665
0.00222241
0.00221868
0.00220856
0.0021257
0.00205413
0.00185856
0.00163446
0.00112054
0.000583595
0.000208297
0.000148399
0.000363956
0.000721989
0.00110023
0.00142778
0.00169154
0.00188963
6.06517e-05
0.000104662
0.000108768
0.000112962
9.06024e-05
0.000112613
8.22498e-05
7.50035e-05
-7.1873e-05
-0.00028245
-0.000891035
-0.00153958
-0.00194216
-0.0019961
-0.00169889
-0.001245
-0.000786642
-0.000429661
-0.000177203
-2.09287e-05
0.00125597
0.00132612
0.00135885
0.00139285
0.00136834
0.00135445
0.0012774
0.00121145
0.00102326
0.000771405
0.000115623
-0.000489583
-0.000756667
-0.000571896
-0.000172675
0.000240297
0.000601668
0.000855778
0.00104166
0.00116895
0.000173774
0.0001836
0.000171167
0.000172267
0.000164776
0.000189049
0.000169172
0.00016438
4.1103e-05
-0.000181161
-0.000863769
-0.00150398
-0.00171875
-0.00145621
-0.000968722
-0.000552353
-0.000224433
-3.10345e-05
9.0755e-05
0.000150618
0.000743467
0.000783623
0.000799924
0.000815491
0.000792692
0.000777407
0.0007175
0.000662402
0.000518171
0.00029033
-0.000337123
-0.000847127
-0.000856257
-0.000556931
-0.000132872
0.000166551
0.000398591
0.000530515
0.000630965
0.00069553
0.000179026
0.000182788
0.00017253
0.000178237
0.000172873
0.000191194
0.000176552
0.000180543
9.87237e-05
-4.70243e-05
-0.000623442
-0.00115689
-0.00109765
-0.000794622
-0.000407472
-0.000171901
6.53692e-06
8.88917e-05
0.000147373
0.000170262
0.000436529
0.000457485
0.000463522
0.000469668
0.000450518
0.00043751
0.000393633
0.000357597
0.000265871
0.000139354
-0.00032625
-0.000619879
-0.00050674
-0.000239632
3.32959e-05
0.000170649
0.000283873
0.000332829
0.000382693
0.000411446
0.000155866
0.000160502
0.000155582
0.000162904
0.000158196
0.000173651
0.000164413
0.000190833
0.000156146
0.000180894
-0.000199748
-0.000575272
-0.000489167
-0.000328007
-0.000117499
-2.51199e-05
6.68826e-05
9.95049e-05
0.00013527
0.00014763
0.000262265
0.000272914
0.000273754
0.000276111
0.000259876
0.000249767
0.000216741
0.000198042
0.000150916
0.000142318
-8.04737e-05
-0.000198064
-0.000125544
-1.03209e-05
0.000111804
0.000143402
0.000195165
0.000207831
0.000235754
0.000248345
0.000127524
0.000133298
0.000132142
0.000139196
0.0001353
0.000148785
0.000144395
0.00018535
0.000191668
0.000365578
0.000228873
-0.000146372
-0.000154565
-0.000139836
-4.8252e-05
-1.03872e-05
5.47081e-05
7.593e-05
0.00010676
0.000117691
0.000166168
0.000171882
0.00017071
0.000171405
0.000157763
0.000149361
0.000122333
0.000109806
7.8068e-05
0.000145087
0.000251639
8.32997e-06
-2.29394e-05
-1.50746e-05
5.42521e-05
6.77621e-05
0.00011497
0.000125817
0.000149144
0.000156852
0.000102669
0.000108159
0.000108639
0.000114263
0.000110956
0.000120338
0.000116543
0.000141315
0.000130459
0.000185718
0.000108641
-6.10592e-05
-5.50116e-05
-7.62964e-05
-1.48426e-05
-4.36179e-06
4.27466e-05
5.73132e-05
8.34168e-05
9.2908e-05
0.000114308
0.000117282
0.000115618
0.000115552
0.000104559
9.73631e-05
7.62728e-05
6.32581e-05
4.14089e-05
4.32998e-05
7.53017e-05
4.57486e-06
2.91021e-05
2.15215e-05
6.15668e-05
5.82086e-05
8.67206e-05
8.86117e-05
0.000104394
0.000108088
8.38032e-05
8.79609e-05
8.8754e-05
9.25742e-05
8.95642e-05
9.50963e-05
9.22684e-05
0.000104267
9.67824e-05
0.000106189
6.34072e-05
-2.57681e-05
-1.74721e-05
-4.13623e-05
2.94777e-07
3.5459e-06
3.81862e-05
4.77848e-05
6.82682e-05
7.54152e-05
8.5891e-05
8.73042e-05
8.58333e-05
8.53895e-05
7.68868e-05
7.09914e-05
5.52832e-05
4.32359e-05
2.7367e-05
1.71083e-05
3.10768e-05
8.91487e-06
3.95661e-05
3.09395e-05
5.91658e-05
5.14834e-05
7.03313e-05
6.89223e-05
7.98938e-05
8.1476e-05
7.06266e-05
7.31128e-05
7.37299e-05
7.5902e-05
7.28212e-05
7.5529e-05
7.30751e-05
7.75059e-05
7.37404e-05
7.00469e-05
4.88341e-05
-5.59386e-06
5.00707e-07
-1.95287e-05
9.78796e-06
1.08991e-05
3.66772e-05
4.33156e-05
5.89603e-05
6.37794e-05
6.98135e-05
7.01873e-05
6.92162e-05
6.85683e-05
6.21276e-05
5.76341e-05
4.63698e-05
3.61418e-05
2.57616e-05
1.418e-05
2.27222e-05
1.40116e-05
4.07097e-05
3.28661e-05
5.37891e-05
4.64154e-05
5.97412e-05
5.78597e-05
6.58688e-05
6.64297e-05
6.1999e-05
6.27777e-05
6.32994e-05
6.40944e-05
6.09365e-05
6.17133e-05
5.92175e-05
5.91804e-05
5.81687e-05
5.01602e-05
4.18026e-05
6.18053e-06
1.24205e-05
-2.85778e-06
1.84785e-05
1.8676e-05
3.74419e-05
4.21096e-05
5.36512e-05
5.65026e-05
6.06719e-05
5.99204e-05
5.96167e-05
5.8702e-05
5.35866e-05
5.03082e-05
4.3117e-05
3.41118e-05
2.87472e-05
1.76155e-05
2.47572e-05
1.81929e-05
3.95133e-05
3.20109e-05
4.84014e-05
4.28958e-05
5.26345e-05
5.15326e-05
5.75966e-05
5.74206e-05
5.66534e-05
5.57398e-05
5.65231e-05
5.63217e-05
5.29324e-05
5.2709e-05
5.01705e-05
4.7185e-05
4.82483e-05
3.88371e-05
3.79237e-05
1.37758e-05
2.15612e-05
1.00103e-05
2.60587e-05
2.59959e-05
3.90382e-05
4.25708e-05
5.08423e-05
5.19676e-05
5.5403e-05
5.34074e-05
5.39222e-05
5.25365e-05
4.82642e-05
4.63712e-05
4.14315e-05
3.35295e-05
3.28065e-05
2.11324e-05
2.93035e-05
2.07497e-05
3.8248e-05
3.11423e-05
4.4037e-05
4.0791e-05
4.79351e-05
4.80727e-05
5.25578e-05
5.18013e-05
5.32438e-05
5.10946e-05
5.25334e-05
5.11331e-05
4.79241e-05
4.72915e-05
4.5156e-05
3.97413e-05
4.27108e-05
3.23521e-05
3.67223e-05
1.90317e-05
2.86294e-05
1.88244e-05
3.18826e-05
3.18187e-05
4.06572e-05
4.37877e-05
4.91398e-05
4.92596e-05
5.25242e-05
4.85855e-05
5.06008e-05
4.86906e-05
4.45305e-05
4.37276e-05
4.04082e-05
3.27224e-05
3.582e-05
2.34293e-05
3.3193e-05
2.24631e-05
3.79328e-05
3.04864e-05
4.14531e-05
4.00896e-05
4.45547e-05
4.6427e-05
4.96187e-05
4.80542e-05
5.19186e-05
4.76673e-05
5.04113e-05
4.77728e-05
4.41632e-05
4.48622e-05
4.2138e-05
3.51557e-05
4.13211e-05
2.82044e-05
3.7822e-05
2.15433e-05
3.387e-05
2.48319e-05
3.55083e-05
3.65194e-05
4.15461e-05
4.52287e-05
4.80385e-05
4.69379e-05
5.04451e-05
4.50139e-05
4.89045e-05
4.56732e-05
4.18386e-05
4.22656e-05
3.99257e-05
3.07596e-05
3.81285e-05
2.37108e-05
3.64519e-05
2.29523e-05
3.87666e-05
2.95112e-05
3.98451e-05
3.99354e-05
4.23141e-05
4.59965e-05
4.72275e-05
4.55081e-05
5.16562e-05
4.397e-05
4.96208e-05
4.62618e-05
4.11e-05
4.33097e-05
4.0773e-05
3.18813e-05
4.16522e-05
2.5476e-05
3.97873e-05
2.26548e-05
3.78062e-05
2.78228e-05
3.81527e-05
4.00547e-05
4.07937e-05
4.67128e-05
4.78787e-05
4.48056e-05
4.98065e-05
4.13111e-05
4.81447e-05
4.36408e-05
3.85579e-05
4.21177e-05
3.92388e-05
2.80942e-05
4.0711e-05
2.15396e-05
3.98044e-05
2.14091e-05
3.97729e-05
2.82917e-05
3.83193e-05
4.06593e-05
3.9846e-05
4.61836e-05
4.54171e-05
4.23657e-05
5.15872e-05
4.10056e-05
4.98924e-05
4.43427e-05
3.82416e-05
4.34699e-05
3.98925e-05
2.81269e-05
4.3305e-05
2.23725e-05
4.25782e-05
2.18406e-05
4.13482e-05
2.8267e-05
3.9067e-05
4.23816e-05
3.98059e-05
4.8321e-05
4.6682e-05
4.25975e-05
5.03252e-05
3.62032e-05
4.84436e-05
4.24907e-05
3.35958e-05
4.31089e-05
3.84723e-05
2.3711e-05
4.32061e-05
1.7559e-05
4.28665e-05
1.81865e-05
4.1395e-05
2.55379e-05
3.64921e-05
4.21227e-05
3.58039e-05
4.68769e-05
4.40744e-05
3.77613e-05
5.20016e-05
3.67575e-05
5.11418e-05
4.26668e-05
3.42839e-05
4.50338e-05
3.8873e-05
2.30846e-05
4.64929e-05
1.72728e-05
4.6454e-05
1.81389e-05
4.45552e-05
2.59874e-05
3.88441e-05
4.41576e-05
3.68729e-05
5.02169e-05
4.50799e-05
3.92778e-05
5.08561e-05
2.97499e-05
5.03984e-05
4.01949e-05
2.69542e-05
4.56672e-05
3.72705e-05
1.62194e-05
4.68465e-05
1.03024e-05
4.68155e-05
1.1753e-05
4.37503e-05
1.99931e-05
3.39315e-05
4.31217e-05
3.02347e-05
4.86228e-05
4.11756e-05
3.18139e-05
5.34641e-05
3.03217e-05
5.36179e-05
4.0474e-05
2.72392e-05
4.81954e-05
3.72453e-05
1.5883e-05
5.02561e-05
9.89184e-06
5.04682e-05
1.16642e-05
4.73863e-05
2.01699e-05
3.73176e-05
4.61819e-05
3.12128e-05
5.25316e-05
4.24411e-05
3.31477e-05
5.28014e-05
1.785e-05
5.5511e-05
3.77863e-05
1.41221e-05
5.20013e-05
3.56039e-05
1.70867e-06
5.36726e-05
-3.4715e-06
5.35349e-05
-1.14842e-06
4.83602e-05
8.06732e-06
2.94481e-05
4.57281e-05
1.90408e-05
5.27085e-05
3.75487e-05
2.09075e-05
5.48602e-05
1.95022e-05
5.81957e-05
3.6221e-05
1.55905e-05
5.43565e-05
3.37685e-05
3.09773e-06
5.56377e-05
-2.68429e-06
5.55073e-05
-2.00247e-07
5.05516e-05
8.93425e-06
3.35718e-05
4.72915e-05
2.07094e-05
5.58983e-05
3.69269e-05
2.30818e-05
5.81339e-05
-5.05568e-06
6.85114e-05
3.11231e-05
-1.32674e-05
6.84302e-05
3.03286e-05
-2.79155e-05
6.69535e-05
-3.07362e-05
6.56387e-05
-2.72752e-05
5.74363e-05
-1.74167e-05
2.13852e-05
5.15619e-05
-3.38972e-06
6.32255e-05
2.89525e-05
-1.63869e-06
-0.0135298
-0.0129809
-0.0125317
-0.0122041
-0.0120122
-0.0119859
-0.0121413
-0.0124567
-0.0129214
-0.0134995
-0.0141547
-0.0148185
-0.0154097
-0.0158338
-0.0160272
-0.0159975
-0.0157564
-0.0153253
-0.0147627
-0.0141416
0.00193435
0.00199124
0.00192504
0.00179067
0.00163342
0.00151833
0.00138218
0.00120737
0.000972628
0.000687735
0.000341638
-2.529e-05
-0.00033703
-0.000510504
-0.000465361
-0.000152151
0.00032596
0.000859893
0.00135103
0.00172254
-0.00274643
-0.00243868
-0.0022224
-0.0020874
-0.00207337
-0.00218087
-0.00237772
-0.00261761
-0.00295225
-0.00334973
-0.0038494
-0.00437152
-0.00481348
-0.00505166
-0.00507943
-0.00489743
-0.00453538
-0.00405838
-0.00356796
-0.003122
0.00338187
0.00345932
0.00347788
0.00348062
0.00345802
0.00341395
0.00328829
0.00313284
0.00285455
0.00251838
0.00200375
0.00145081
0.00102382
0.00088784
0.0011375
0.00158356
0.00213141
0.00262097
0.00299163
0.00323991
-0.000285188
-0.000126174
-5.51137e-05
-1.88273e-05
-7.96863e-05
-0.00012082
-0.000230622
-0.000344177
-0.000611106
-0.00096185
-0.0016021
-0.0023155
-0.00284474
-0.00304784
-0.00291548
-0.00251675
-0.00195099
-0.00138187
-0.000895911
-0.000529301
0.00247798
0.00259718
0.00265323
0.00269988
0.00267698
0.00264354
0.00251212
0.00237514
0.00206422
0.00167625
0.00091858
0.000183572
-0.000249136
-0.000193999
0.000213634
0.000771179
0.00130836
0.0017436
0.00207581
0.00231682
0.000290884
0.000348658
0.00035566
0.000357961
0.000326108
0.000334315
0.000266352
0.000205512
-5.07355e-05
-0.000428879
-0.00130562
-0.00214893
-0.00257551
-0.00248179
-0.00197891
-0.00134314
-0.000752254
-0.000310958
-3.7871e-06
0.000187814
0.00158489
0.00167349
0.00171335
0.00174989
0.00171288
0.00168295
0.00156689
0.0014468
0.00115078
0.000728913
-0.000200173
-0.000970994
-0.00120055
-0.000857829
-0.000266443
0.000288733
0.000752444
0.00107367
0.00130923
0.00147254
0.000370701
0.000392115
0.000381877
0.000385357
0.00036984
0.000385565
0.000336366
0.000289363
7.14568e-05
-0.000312701
-0.00126945
-0.00205865
-0.0022
-0.00176823
-0.00110772
-0.000574989
-0.000163399
8.29855e-05
0.000244244
0.000330631
0.000967428
0.00102024
0.00104049
0.00105745
0.00102546
0.000999553
0.00091066
0.000815484
0.00058567
0.000209204
-0.000674624
-0.00129123
-0.001201
-0.000747709
-0.000183051
0.000203778
0.000502632
0.000677402
0.000812949
0.000902099
0.000329514
0.000341337
0.000332271
0.000340405
0.000328765
0.000342065
0.0003066
0.000283516
0.000133292
-0.000135304
-0.000946344
-0.00156717
-0.001396
-0.000963001
-0.000461257
-0.00016089
7.02776e-05
0.000184073
0.000269295
0.000309261
0.000586656
0.000615425
0.000623115
0.000630382
0.000604117
0.000584633
0.000521073
0.000460999
0.0003134
8.7e-05
-0.000576055
-0.000910439
-0.000694946
-0.000325343
3.16314e-05
0.000211624
0.000364267
0.0004358
0.000507744
0.000550842
0.000266206
0.000276533
0.000272397
0.000281867
0.000272399
0.00028592
0.000263681
0.000279677
0.000206662
0.000171447
-0.000374024
-0.000792604
-0.000621614
-0.000393164
-0.000119439
5.54564e-07
0.00012409
0.000173174
0.000226898
0.000249917
0.000364336
0.000379957
0.000381382
0.00038478
0.000362996
0.000349326
0.000303459
0.00027425
0.000198541
0.000146877
-0.000189882
-0.000322432
-0.00018565
-2.69232e-05
0.000136442
0.000181889
0.000256551
0.000279918
0.000322384
0.000343399
0.000208015
0.000218006
0.000217465
0.000226388
0.000218864
0.000232301
0.000220328
0.000262059
0.000254079
0.000423664
0.000205028
-0.00022792
-0.000194073
-0.000162123
-3.66723e-05
1.11444e-05
9.83563e-05
0.000129299
0.000173779
0.00019201
0.000238199
0.000247292
0.000246287
0.000247879
0.000229776
0.000219292
0.000183121
0.00016671
0.000120672
0.000188051
0.000272718
-3.08652e-05
-4.12247e-05
-2.5131e-05
7.11418e-05
9.17629e-05
0.000157837
0.000175719
0.000210417
0.00022375
0.000162744
0.00017133
0.000172244
0.000179324
0.000173082
0.000182718
0.000173588
0.000199919
0.000179855
0.00023917
0.000132107
-8.80828e-05
-6.91188e-05
-9.18563e-05
-6.22451e-06
9.34889e-06
7.47353e-05
9.62137e-05
0.000133367
0.000148123
0.000168005
0.000173269
0.000171594
0.000172195
0.000157574
0.000148861
0.000120846
0.000104903
7.37279e-05
7.41049e-05
9.7397e-05
-5.63466e-06
3.07128e-05
2.03885e-05
7.89582e-05
7.74279e-05
0.00012008
0.000126056
0.00015052
0.000157938
0.000130644
0.000136905
0.000137929
0.000142728
0.000137225
0.000142756
0.000135896
0.000148011
0.000134464
0.000142456
8.56131e-05
-3.37911e-05
-1.73127e-05
-4.70601e-05
1.15588e-05
1.66542e-05
6.50215e-05
7.89106e-05
0.000107828
0.000118538
0.000128447
0.000131306
0.000129744
0.0001297
0.000118245
0.000111106
9.01702e-05
7.52114e-05
5.2893e-05
3.8552e-05
4.83447e-05
9.58426e-06
5.01886e-05
3.6698e-05
7.82298e-05
6.99294e-05
9.90514e-05
9.97687e-05
0.000117198
0.000121137
0.000109143
0.000112863
0.00011356
0.000116257
0.000110968
0.00011339
0.000107758
0.000111161
0.000103511
9.60475e-05
6.8177e-05
-4.55225e-06
8.11767e-06
-1.77927e-05
2.39387e-05
2.53234e-05
6.12544e-05
7.04832e-05
9.2406e-05
9.94723e-05
0.0001056
0.0001067
0.000105646
0.000105127
9.62508e-05
9.07359e-05
7.5592e-05
6.25336e-05
4.80616e-05
3.17216e-05
3.8805e-05
2.0336e-05
5.54233e-05
4.28256e-05
7.36757e-05
6.50043e-05
8.59057e-05
8.52015e-05
9.80153e-05
9.99822e-05
9.54109e-05
9.66386e-05
9.72125e-05
9.81256e-05
9.29604e-05
9.32792e-05
8.82351e-05
8.64553e-05
8.32538e-05
7.08318e-05
6.00122e-05
1.2578e-05
2.46485e-05
4.38201e-06
3.50851e-05
3.49584e-05
6.11484e-05
6.74524e-05
8.35865e-05
8.77056e-05
9.24086e-05
9.16847e-05
9.14201e-05
9.03485e-05
8.31277e-05
7.90503e-05
6.90783e-05
5.72861e-05
4.98369e-05
3.39201e-05
4.14963e-05
2.79724e-05
5.63849e-05
4.46316e-05
6.87492e-05
6.20686e-05
7.74026e-05
7.71482e-05
8.67645e-05
8.72783e-05
8.70253e-05
8.5805e-05
8.6788e-05
8.63369e-05
8.1052e-05
8.03774e-05
7.57859e-05
7.05507e-05
7.08857e-05
5.68542e-05
5.61653e-05
2.36803e-05
3.70507e-05
2.13128e-05
4.46438e-05
4.41784e-05
6.25105e-05
6.72622e-05
7.88104e-05
8.04477e-05
8.47728e-05
8.20854e-05
8.29195e-05
8.10406e-05
7.48506e-05
7.24685e-05
6.54582e-05
5.47258e-05
5.37013e-05
3.70849e-05
4.73108e-05
3.27346e-05
5.66e-05
4.56665e-05
6.47902e-05
6.08078e-05
7.19843e-05
7.30155e-05
8.00212e-05
7.93902e-05
8.18558e-05
7.86472e-05
8.0659e-05
7.85855e-05
7.35498e-05
7.26611e-05
6.88705e-05
6.07072e-05
6.43668e-05
4.90241e-05
5.57149e-05
3.12672e-05
4.6574e-05
3.2935e-05
5.19504e-05
5.16777e-05
6.41143e-05
6.84657e-05
7.59852e-05
7.60532e-05
8.06028e-05
7.50875e-05
7.79848e-05
7.51826e-05
6.91026e-05
6.82407e-05
6.32928e-05
5.24931e-05
5.69796e-05
3.91425e-05
5.25552e-05
3.5824e-05
5.7585e-05
4.63642e-05
6.26567e-05
6.10928e-05
6.81658e-05
7.13081e-05
7.61121e-05
7.41514e-05
7.96653e-05
7.33825e-05
7.73918e-05
7.3579e-05
6.80202e-05
6.90365e-05
6.47913e-05
5.44853e-05
6.30333e-05
4.39854e-05
5.80009e-05
3.50531e-05
5.37208e-05
4.0748e-05
5.65584e-05
5.78186e-05
6.49146e-05
7.02294e-05
7.42038e-05
7.25042e-05
7.78421e-05
6.97966e-05
7.54855e-05
7.08045e-05
6.48838e-05
6.59545e-05
6.21629e-05
4.91933e-05
5.98736e-05
3.88764e-05
5.71919e-05
3.69059e-05
5.96759e-05
4.61402e-05
6.14064e-05
6.18849e-05
6.55067e-05
7.11624e-05
7.30548e-05
7.04617e-05
7.90787e-05
6.80005e-05
7.61342e-05
7.10504e-05
6.34704e-05
6.69322e-05
6.28613e-05
4.97762e-05
6.39714e-05
4.03214e-05
6.13396e-05
3.6563e-05
5.92012e-05
4.45559e-05
5.98106e-05
6.25475e-05
6.37214e-05
7.2213e-05
7.36197e-05
6.92588e-05
7.70028e-05
6.44008e-05
7.44766e-05
6.78145e-05
6.00586e-05
6.56171e-05
6.10228e-05
4.50204e-05
6.33698e-05
3.55639e-05
6.20171e-05
3.50593e-05
6.18364e-05
4.49981e-05
5.99633e-05
6.35068e-05
6.23181e-05
7.18085e-05
7.06704e-05
6.60507e-05
7.89973e-05
6.33281e-05
7.64664e-05
6.8266e-05
5.90039e-05
6.71988e-05
6.15646e-05
4.42643e-05
6.66337e-05
3.5766e-05
6.56645e-05
3.51641e-05
6.41223e-05
4.48386e-05
6.08276e-05
6.58338e-05
6.19119e-05
7.44518e-05
7.18539e-05
6.57313e-05
7.76559e-05
5.72167e-05
7.50303e-05
6.58917e-05
5.31014e-05
6.7021e-05
5.98228e-05
3.85397e-05
6.70548e-05
2.96728e-05
6.6646e-05
3.05551e-05
6.46177e-05
4.13712e-05
5.78231e-05
6.58036e-05
5.69175e-05
7.31053e-05
6.86524e-05
5.97123e-05
7.96341e-05
5.68469e-05
7.8289e-05
6.57433e-05
5.28673e-05
6.95054e-05
6.0051e-05
3.67269e-05
7.12661e-05
2.82706e-05
7.13065e-05
2.96603e-05
6.86374e-05
4.12302e-05
6.0225e-05
6.84103e-05
5.73791e-05
7.71501e-05
6.94209e-05
6.05394e-05
7.84881e-05
4.80192e-05
7.78592e-05
6.2622e-05
4.3669e-05
7.07069e-05
5.80328e-05
2.78983e-05
7.23312e-05
1.93404e-05
7.24337e-05
2.15318e-05
6.82056e-05
3.36633e-05
5.44579e-05
6.74877e-05
4.91196e-05
7.57254e-05
6.46098e-05
5.1321e-05
8.15918e-05
4.72584e-05
8.19799e-05
6.24787e-05
4.24906e-05
7.42137e-05
5.76764e-05
2.58526e-05
7.69013e-05
1.72603e-05
7.73197e-05
1.99864e-05
7.28074e-05
3.25808e-05
5.77538e-05
7.12366e-05
4.89913e-05
8.05536e-05
6.54709e-05
5.15276e-05
8.10245e-05
3.20696e-05
8.47369e-05
5.90085e-05
2.6502e-05
7.92991e-05
5.55063e-05
8.52117e-06
8.15223e-05
8.49905e-07
8.15242e-05
4.30392e-06
7.43656e-05
1.77654e-05
4.84991e-05
7.09321e-05
3.42301e-05
8.12027e-05
5.93388e-05
3.67071e-05
8.36213e-05
3.21629e-05
8.85873e-05
5.6704e-05
2.61641e-05
8.30292e-05
5.30221e-05
7.88353e-06
8.47135e-05
-3.5423e-07
8.46955e-05
3.40784e-06
7.74758e-05
1.69037e-05
5.24273e-05
7.30998e-05
3.44451e-05
8.5448e-05
5.79352e-05
3.74692e-05
8.72207e-05
4.29884e-06
0.000100641
5.06125e-05
-6.50184e-06
9.95065e-05
4.8936e-05
-2.72372e-05
9.79377e-05
-3.22007e-05
9.65425e-05
-2.73098e-05
8.53734e-05
-1.3046e-05
3.84747e-05
7.79159e-05
7.14465e-06
9.38471e-05
4.8357e-05
9.55455e-06
-0.0149498
-0.0143248
-0.013811
-0.0134358
-0.013222
-0.0132059
-0.0133951
-0.0137673
-0.0143089
-0.0149766
-0.0157259
-0.0164776
-0.0171395
-0.0176078
-0.0178141
-0.0177671
-0.0174816
-0.016986
-0.0163465
-0.0156431
0.00141562
0.00152447
0.00149526
0.00138191
0.00123485
0.00111135
0.00093501
0.000702852
0.000392752
2.06782e-05
-0.00041889
-0.000873688
-0.00125308
-0.00146173
-0.00140892
-0.00105285
-0.000506985
0.000109719
0.000686363
0.00113705
-0.00310468
-0.00274856
-0.00250907
-0.00237062
-0.00238099
-0.00252211
-0.00276676
-0.00307152
-0.00349014
-0.0039846