/*--------------------------------*- C++ -*----------------------------------*\
| =========                 |                                                 |
| \\      /  F ield         | OpenFOAM: The Open Source CFD Toolbox           |
|  \\    /   O peration     | Version:  2.4.0                                 |
|   \\  /    A nd           | Web:      www.OpenFOAM.org                      |
|    \\/     M anipulation  |                                                 |
\*---------------------------------------------------------------------------*/
FoamFile
{
    version     2.0;
    format      ascii;
    class       volScalarField;
    location    "550";
    object      p;
}
// * * * * * * * * * * * * * * * * * * * * * * * * * * * * * * * * * * * * * //

dimensions      [0 2 -2 0 0 0 0];

internalField   nonuniform List<scalar> 
283312
(
-0.00626954
-0.00632778
-0.00656732
-0.00690818
-0.00726237
-0.00756074
-0.0077951
-0.00795996
-0.00808746
-0.00820087
-0.00832026
-0.00843214
-0.00850446
-0.00848148
-0.00833008
-0.0080574
-0.00767424
-0.0072176
-0.00676887
-0.0064264
0.00215299
0.00164902
0.0012207
0.00094933
0.000848057
0.000911905
0.00105353
0.00119353
0.00130367
0.00139138
0.00145896
0.00153812
0.00166689
0.00186792
0.00215446
0.0025255
0.00284268
0.00299594
0.00292127
0.00261708
-0.00230078
-0.00215166
-0.00192993
-0.00169095
-0.00149967
-0.00140368
-0.00138642
-0.00139408
-0.00144471
-0.00148814
-0.00152011
-0.00149971
-0.00142774
-0.00132599
-0.00127675
-0.00137926
-0.0016152
-0.00190586
-0.00216625
-0.00230978
0.00148382
0.00165527
0.0017983
0.0019127
0.00199551
0.00206391
0.00207044
0.00207633
0.00204243
0.00205227
0.00206864
0.00211608
0.00214691
0.00210875
0.00198626
0.00174968
0.00150232
0.00131951
0.00126406
0.00133647
-0.000744007
-0.000546383
-0.000430187
-0.000352465
-0.000349697
-0.000337569
-0.000349719
-0.000336763
-0.000367519
-0.000345658
-0.000356101
-0.000412002
-0.000585823
-0.000896031
-0.00131425
-0.00165036
-0.00174224
-0.00160442
-0.00132274
-0.00100895
0.00120485
0.00131403
0.00137163
0.00141704
0.00143064
0.00143782
0.00140319
0.00138985
0.00132506
0.00133386
0.00127643
0.00115171
0.000879188
0.000525977
0.000264928
0.000194541
0.000321292
0.000562096
0.000825867
0.00104853
-0.000149995
-0.000110688
-0.000103945
-9.83237e-05
-0.000109726
-8.47565e-05
-8.5273e-05
-5.68121e-05
-8.85918e-05
-6.48271e-05
-0.000182324
-0.000455231
-0.000865871
-0.00126903
-0.0014001
-0.0012484
-0.000936705
-0.000624483
-0.000382308
-0.00022933
0.000764003
0.000812881
0.000836264
0.000861046
0.000849254
0.00084557
0.000807937
0.000787458
0.0007184
0.000707466
0.000546877
0.000231527
-0.0001732
-0.0003623
-0.000309407
-7.78642e-05
0.000206573
0.000433303
0.000595507
0.000699004
1.32817e-07
1.74349e-06
-9.23993e-06
-1.09285e-05
-1.23726e-05
9.55632e-06
1.14005e-05
3.13239e-05
3.48898e-06
6.60129e-06
-0.000188925
-0.000597189
-0.00100259
-0.00108567
-0.000870651
-0.000579521
-0.000314723
-0.000150321
-5.41811e-05
-1.20422e-05
0.000441893
0.000466381
0.000477105
0.000487535
0.000474667
0.000466251
0.000435801
0.000413457
0.000360072
0.000342677
0.000161461
-0.000210335
-0.00046268
-0.000448483
-0.000215746
9.76032e-06
0.000194593
0.00030003
0.000370867
0.000412504
4.42255e-05
4.21393e-05
3.32183e-05
3.50452e-05
3.42892e-05
4.93446e-05
4.97001e-05
6.60038e-05
4.88367e-05
7.34364e-05
-0.00010417
-0.000534958
-0.000716909
-0.000634346
-0.000390571
-0.00020528
-6.71565e-05
-4.12222e-06
3.28103e-05
4.34399e-05
0.000251172
0.000262889
0.00026667
0.000269791
0.000258608
0.000249836
0.000226232
0.000208626
0.000173222
0.000192163
5.50972e-05
-0.000227724
-0.000332336
-0.000226179
-4.54182e-05
6.89678e-05
0.000154724
0.000191203
0.000221398
0.000237327
5.52e-05
5.51331e-05
5.06202e-05
5.40508e-05
5.28542e-05
6.41171e-05
6.37541e-05
8.73075e-05
8.39291e-05
0.000190264
7.55117e-05
-0.000272242
-0.000356318
-0.00029062
-0.000145004
-6.32339e-05
4.77316e-06
2.88311e-05
4.88197e-05
5.33944e-05
0.000145646
0.000150805
0.000150992
0.000151276
0.000141491
0.000133698
0.00011454
0.000102369
8.17109e-05
0.000139055
9.81004e-05
-5.16228e-05
-0.000108755
-5.3479e-05
3.36728e-05
7.06478e-05
0.000108282
0.000118092
0.000133049
0.00013884
5.29549e-05
5.46544e-05
5.31624e-05
5.67063e-05
5.54962e-05
6.44757e-05
6.47653e-05
9.32942e-05
0.00010526
0.00028015
0.000267021
-5.06605e-05
-0.000137033
-0.000139589
-7.50637e-05
-3.47176e-05
1.12321e-05
2.69852e-05
4.41422e-05
4.90233e-05
8.9111e-05
9.1305e-05
9.00874e-05
8.92961e-05
8.09494e-05
7.40691e-05
5.76944e-05
4.70718e-05
2.90019e-05
8.60717e-05
0.000195898
3.70486e-05
-1.94185e-05
-1.94127e-05
2.15325e-05
3.49255e-05
6.34478e-05
7.02448e-05
8.19752e-05
8.50356e-05
4.63817e-05
4.8571e-05
4.84673e-05
5.12971e-05
5.0191e-05
5.61801e-05
5.59786e-05
7.23519e-05
6.84942e-05
0.000106983
6.64687e-05
-3.07789e-05
-4.01423e-05
-5.48703e-05
-2.09004e-05
-1.19139e-05
1.47752e-05
2.35139e-05
3.72776e-05
4.18333e-05
5.95397e-05
6.02833e-05
5.87782e-05
5.76823e-05
5.09566e-05
4.50822e-05
3.22826e-05
2.18669e-05
9.77149e-06
9.09135e-06
4.07762e-05
9.82875e-06
1.88921e-05
1.65456e-05
3.63648e-05
3.5156e-05
4.91081e-05
4.92223e-05
5.62334e-05
5.7142e-05
3.95844e-05
4.14047e-05
4.1688e-05
4.35366e-05
4.24331e-05
4.58657e-05
4.58133e-05
5.38733e-05
5.14641e-05
5.81521e-05
3.35676e-05
-1.54754e-05
-1.68327e-05
-3.0529e-05
-8.366e-06
-4.55878e-06
1.45889e-05
2.06557e-05
3.16213e-05
3.53741e-05
4.3795e-05
4.38924e-05
4.25995e-05
4.15051e-05
3.63601e-05
3.16329e-05
2.21404e-05
1.32269e-05
4.42132e-06
-2.43906e-06
1.15544e-05
6.41557e-06
2.27462e-05
2.05338e-05
3.41684e-05
3.02779e-05
3.89006e-05
3.74276e-05
4.21024e-05
4.21958e-05
3.41194e-05
3.52193e-05
3.54723e-05
3.64231e-05
3.51132e-05
3.67178e-05
3.64939e-05
3.97668e-05
3.90717e-05
3.78445e-05
2.53897e-05
-5.23333e-06
-6.21086e-06
-1.71489e-05
-1.94537e-06
4.35039e-07
1.47159e-05
1.9281e-05
2.78189e-05
3.05364e-05
3.50619e-05
3.48372e-05
3.39439e-05
3.29654e-05
2.91538e-05
2.55985e-05
1.883e-05
1.17228e-05
5.84245e-06
-9.17313e-07
6.8066e-06
6.97569e-06
2.18214e-05
1.97547e-05
2.98171e-05
2.60917e-05
3.20256e-05
3.0578e-05
3.3988e-05
3.38434e-05
3.02537e-05
3.05444e-05
3.0746e-05
3.09599e-05
2.94877e-05
2.98316e-05
2.91985e-05
2.96641e-05
3.00576e-05
2.61772e-05
2.10641e-05
7.85258e-07
1.06816e-06
-6.94569e-06
3.90208e-06
5.44906e-06
1.5847e-05
1.9236e-05
2.56029e-05
2.73431e-05
3.01473e-05
2.95183e-05
2.90776e-05
2.81542e-05
2.52086e-05
2.26125e-05
1.84061e-05
1.24985e-05
9.31e-06
3.23363e-06
8.50133e-06
8.23216e-06
2.00081e-05
1.76107e-05
2.55623e-05
2.28949e-05
2.72452e-05
2.64441e-05
2.91223e-05
2.88101e-05
2.77336e-05
2.72053e-05
2.75192e-05
2.7257e-05
2.55548e-05
2.52103e-05
2.4246e-05
2.28775e-05
2.39366e-05
1.92591e-05
1.82223e-05
4.7234e-06
6.75239e-06
9.89235e-07
9.01555e-06
1.00761e-05
1.72701e-05
1.98429e-05
2.44589e-05
2.52713e-05
2.72909e-05
2.61697e-05
2.61928e-05
2.51844e-05
2.28043e-05
2.12047e-05
1.83579e-05
1.35189e-05
1.28516e-05
6.62502e-06
1.15805e-05
9.01724e-06
1.84061e-05
1.58804e-05
2.20733e-05
2.06803e-05
2.39765e-05
2.39805e-05
2.60757e-05
2.56194e-05
2.59863e-05
2.49968e-05
2.55817e-05
2.47115e-05
2.31232e-05
2.24061e-05
2.15315e-05
1.86807e-05
2.02994e-05
1.52305e-05
1.69626e-05
7.57562e-06
1.11367e-05
6.4091e-06
1.29331e-05
1.36535e-05
1.85872e-05
2.06951e-05
2.37129e-05
2.40454e-05
2.5685e-05
2.36317e-05
2.44615e-05
2.3367e-05
2.109e-05
2.01355e-05
1.83245e-05
1.39511e-05
1.51968e-05
8.86353e-06
1.39795e-05
9.66627e-06
1.75653e-05
1.46407e-05
1.99066e-05
1.95012e-05
2.15959e-05
2.26069e-05
2.42773e-05
2.34722e-05
2.53567e-05
2.33721e-05
2.45184e-05
2.30605e-05
2.12418e-05
2.12583e-05
1.98682e-05
1.62314e-05
1.92491e-05
1.27242e-05
1.72014e-05
8.92768e-06
1.42937e-05
1.0188e-05
1.53468e-05
1.64815e-05
1.93818e-05
2.15411e-05
2.32063e-05
2.28773e-05
2.43529e-05
2.18368e-05
2.35259e-05
2.18106e-05
1.99117e-05
1.95132e-05
1.84011e-05
1.33818e-05
1.67226e-05
9.64466e-06
1.57956e-05
9.84225e-06
1.75826e-05
1.35189e-05
1.85183e-05
1.87831e-05
2.01224e-05
2.20012e-05
2.27501e-05
2.20927e-05
2.52459e-05
2.14803e-05
2.40905e-05
2.24891e-05
1.97616e-05
2.03838e-05
1.91914e-05
1.46755e-05
1.91726e-05
1.13477e-05
1.79591e-05
9.72164e-06
1.65633e-05
1.21725e-05
1.71578e-05
1.85358e-05
1.91122e-05
2.23189e-05
2.33078e-05
2.18293e-05
2.38642e-05
1.99619e-05
2.29889e-05
2.07935e-05
1.83052e-05
1.95055e-05
1.81947e-05
1.23462e-05
1.82121e-05
8.83796e-06
1.75624e-05
8.97701e-06
1.77307e-05
1.26208e-05
1.7331e-05
1.87801e-05
1.86723e-05
2.17809e-05
2.16485e-05
2.03572e-05
2.5088e-05
2.0222e-05
2.41765e-05
2.1514e-05
1.8551e-05
2.04117e-05
1.88142e-05
1.29415e-05
1.98369e-05
9.99961e-06
1.92114e-05
9.61825e-06
1.85484e-05
1.27529e-05
1.78823e-05
1.97562e-05
1.89118e-05
2.3118e-05
2.27034e-05
2.08909e-05
2.40706e-05
1.7267e-05
2.29559e-05
2.03817e-05
1.56968e-05
1.99657e-05
1.79251e-05
1.03424e-05
1.93953e-05
7.09807e-06
1.89717e-05
7.42082e-06
1.8288e-05
1.11236e-05
1.61224e-05
1.93844e-05
1.64092e-05
2.18541e-05
2.10098e-05
1.78051e-05
2.51529e-05
1.83456e-05
2.4681e-05
2.07503e-05
1.68883e-05
2.10919e-05
1.83922e-05
1.06946e-05
2.13676e-05
7.71505e-06
2.10964e-05
8.0478e-06
2.02282e-05
1.19521e-05
1.7976e-05
2.06223e-05
1.771e-05
2.40065e-05
2.19808e-05
1.94767e-05
2.41561e-05
1.40264e-05
2.37933e-05
1.9236e-05
1.23527e-05
2.11387e-05
1.74368e-05
6.6254e-06
2.11068e-05
3.5917e-06
2.08147e-05
4.23944e-06
1.92913e-05
8.31618e-06
1.46167e-05
1.9685e-05
1.35658e-05
2.25459e-05
1.94875e-05
1.47195e-05
2.58202e-05
1.54951e-05
2.56573e-05
1.97797e-05
1.36873e-05
2.23954e-05
1.76891e-05
7.65576e-06
2.29512e-05
4.57564e-06
2.28187e-05
5.33113e-06
2.14779e-05
9.46285e-06
1.73871e-05
2.16347e-05
1.52227e-05
2.49633e-05
2.08106e-05
1.66263e-05
2.5089e-05
7.58447e-06
2.63959e-05
1.82533e-05
5.38933e-06
2.43557e-05
1.68445e-05
-1.25133e-06
2.46733e-05
-3.72862e-06
2.43278e-05
-2.66739e-06
2.17185e-05
1.89393e-06
1.20255e-05
2.10874e-05
7.47087e-06
2.46146e-05
1.7827e-05
8.76265e-06
2.62147e-05
1.03379e-05
2.75047e-05
1.76161e-05
8.1987e-06
2.50089e-05
1.59316e-05
1.69234e-06
2.51561e-05
-1.26876e-06
2.48626e-05
-2.00737e-07
2.26541e-05
4.18465e-06
1.55155e-05
2.18276e-05
1.01635e-05
2.62349e-05
1.79922e-05
1.17827e-05
2.82836e-05
-6.76487e-06
3.40721e-05
1.44176e-05
-1.19751e-05
3.40249e-05
1.38323e-05
-1.99363e-05
3.23835e-05
-2.06817e-05
3.13136e-05
-1.89724e-05
2.70516e-05
-1.40785e-05
6.78612e-06
2.45749e-05
-6.66944e-06
3.08997e-05
1.29157e-05
-5.60593e-06
-0.0109865
-0.010594
-0.0102883
-0.0100769
-0.00996055
-0.00994822
-0.0100693
-0.0103042
-0.0106471
-0.0110738
-0.0115619
-0.0120604
-0.0125061
-0.012821
-0.0129544
-0.0129167
-0.012716
-0.012368
-0.0119226
-0.0114431
0.00232628
0.00228038
0.00214929
0.00198789
0.0018339
0.00174406
0.00167503
0.0015899
0.00146782
0.00131349
0.00111148
0.000888436
0.00069941
0.000605168
0.000667435
0.000935728
0.00131236
0.00170486
0.00203613
0.00225048
-0.00233632
-0.00210097
-0.00191556
-0.0017799
-0.00173056
-0.00178658
-0.00191427
-0.00206418
-0.0022822
-0.00253833
-0.00286978
-0.0032208
-0.00352344
-0.00369313
-0.00372962
-0.00365446
-0.00346608
-0.00318802
-0.00288635
-0.00259704
0.00291021
0.0029736
0.00299781
0.00301524
0.0030202
0.00302012
0.00295347
0.00287535
0.00270872
0.00251584
0.00218806
0.00181907
0.00151261
0.00138223
0.00150978
0.00176938
0.00210786
0.00241324
0.0026476
0.00281055
-0.00045856
-0.000310869
-0.000237966
-0.000190997
-0.000228511
-0.000244284
-0.000305652
-0.000352553
-0.000508028
-0.000704243
-0.00112494
-0.00163081
-0.0020587
-0.00228686
-0.0023102
-0.00212765
-0.00177025
-0.00136231
-0.000981263
-0.000674078
0.00202433
0.00212596
0.00217655
0.00222231
0.00221858
0.00220846
0.00212561
0.00205403
0.00185846
0.00163437
0.00112046
0.000583526
0.00020822
0.000148297
0.000363825
0.000721845
0.00110009
0.00142764
0.00169142
0.00188952
6.06397e-05
0.000104656
0.000108766
0.000112965
9.06072e-05
0.000112618
8.22542e-05
7.5006e-05
-7.18683e-05
-0.000282439
-0.00089099
-0.00153949
-0.00194206
-0.001996
-0.00169882
-0.00124496
-0.000786638
-0.000429673
-0.00017722
-2.09447e-05
0.00125589
0.00132604
0.00135877
0.00139277
0.00136826
0.00135438
0.00127733
0.00121137
0.00102319
0.000771348
0.000115621
-0.000489519
-0.000756563
-0.000571822
-0.000172648
0.000240272
0.000601608
0.0008557
0.00104158
0.00116886
0.00017375
0.000183582
0.000171153
0.000172256
0.000164765
0.000189037
0.000169157
0.000164362
4.10884e-05
-0.000181164
-0.000863711
-0.00150385
-0.00171857
-0.00145605
-0.000968633
-0.000552324
-0.000224442
-3.10608e-05
9.07245e-05
0.00015059
0.000743414
0.000783572
0.000799874
0.000815442
0.000792644
0.000777359
0.000717453
0.000662353
0.000518129
0.000290302
-0.000337096
-0.000847036
-0.00085614
-0.000556838
-0.000132835
0.000166543
0.000398555
0.000530467
0.000630913
0.000695477
0.000179006
0.000182772
0.000172518
0.000178226
0.000172862
0.000191181
0.000176537
0.000180526
9.87098e-05
-4.70272e-05
-0.000623399
-0.00115679
-0.00109754
-0.000794538
-0.000407436
-0.000171898
6.52057e-06
8.8868e-05
0.000147348
0.00017024
0.000436496
0.000457453
0.00046349
0.000469638
0.000450488
0.00043748
0.000393605
0.000357568
0.000265847
0.000139338
-0.000326229
-0.000619819
-0.000506679
-0.000239594
3.33041e-05
0.000170636
0.000283848
0.000332799
0.000382661
0.000411414
0.000155851
0.000160489
0.000155572
0.000162895
0.000158186
0.000173642
0.000164402
0.000190821
0.000156135
0.000180888
-0.000199725
-0.000575226
-0.000489123
-0.000327981
-0.000117494
-2.51281e-05
6.68671e-05
9.94869e-05
0.000135252
0.000147613
0.000262244
0.000272894
0.000273734
0.000276092
0.000259857
0.000249749
0.000216725
0.000198024
0.000150903
0.000142304
-8.04683e-05
-0.000198043
-0.000125527
-1.03172e-05
0.000111797
0.000143389
0.000195148
0.000207811
0.000235733
0.000248325
0.000127513
0.000133288
0.000132133
0.000139188
0.000135293
0.000148778
0.000144388
0.000185342
0.00019166
0.000365569
0.000228874
-0.000146373
-0.000154562
-0.000139835
-4.82595e-05
-1.03977e-05
5.46954e-05
7.59167e-05
0.000106747
0.000117679
0.000166154
0.000171869
0.000170697
0.000171393
0.000157751
0.00014935
0.000122323
0.000109796
7.80617e-05
0.00014508
0.000251636
8.32407e-06
-2.29512e-05
-1.50864e-05
5.42432e-05
6.77513e-05
0.000114958
0.000125804
0.000149131
0.000156839
0.00010266
0.000108151
0.000108631
0.000114257
0.00011095
0.000120333
0.000116537
0.00014131
0.000130454
0.000185715
0.000108641
-6.10606e-05
-5.50111e-05
-7.62991e-05
-1.4849e-05
-4.36911e-06
4.27377e-05
5.73037e-05
8.34071e-05
9.28985e-05
0.000114299
0.000117273
0.000115609
0.000115544
0.000104551
9.73562e-05
7.6267e-05
6.32527e-05
4.14056e-05
4.32965e-05
7.52991e-05
4.57107e-06
2.90961e-05
2.15148e-05
6.15605e-05
5.82016e-05
8.67127e-05
8.86031e-05
0.000104385
0.000108079
8.37961e-05
8.79543e-05
8.87478e-05
9.25688e-05
8.95591e-05
9.50919e-05
9.22643e-05
0.000104263
9.67793e-05
0.000106186
6.34069e-05
-2.57686e-05
-1.74724e-05
-4.13646e-05
2.90732e-07
3.54067e-06
3.81798e-05
4.77778e-05
6.82609e-05
7.54079e-05
8.58842e-05
8.72977e-05
8.5827e-05
8.53838e-05
7.68816e-05
7.09868e-05
5.52794e-05
4.32327e-05
2.7365e-05
1.71068e-05
3.10751e-05
8.91257e-06
3.95625e-05
3.09355e-05
5.91615e-05
5.14787e-05
7.03259e-05
6.89164e-05
7.98874e-05
8.14693e-05
7.06212e-05
7.31077e-05
7.37251e-05
7.58977e-05
7.28172e-05
7.55256e-05
7.3072e-05
7.75032e-05
7.37382e-05
7.00448e-05
4.88332e-05
-5.59431e-06
5.00046e-07
-1.95305e-05
9.78499e-06
1.08953e-05
3.66725e-05
4.33105e-05
5.89548e-05
6.3774e-05
6.98086e-05
7.01827e-05
6.92117e-05
6.85643e-05
6.21238e-05
5.7631e-05
4.63671e-05
3.61398e-05
2.57601e-05
1.41791e-05
2.27209e-05
1.401e-05
4.07073e-05
3.28635e-05
5.37861e-05
4.64122e-05
5.97373e-05
5.78555e-05
6.58642e-05
6.6425e-05
6.1995e-05
6.27739e-05
6.32957e-05
6.40912e-05
6.09334e-05
6.17107e-05
5.92151e-05
5.91785e-05
5.81671e-05
5.01588e-05
4.18018e-05
6.18011e-06
1.24197e-05
-2.85923e-06
1.84762e-05
1.86732e-05
3.74385e-05
4.21058e-05
5.36472e-05
5.64986e-05
6.06684e-05
5.99171e-05
5.96135e-05
5.86991e-05
5.35839e-05
5.0306e-05
4.3115e-05
3.41103e-05
2.8746e-05
1.76148e-05
2.47562e-05
1.81919e-05
3.95116e-05
3.20091e-05
4.83992e-05
4.28935e-05
5.26317e-05
5.15295e-05
5.75933e-05
5.74173e-05
5.66506e-05
5.5737e-05
5.65205e-05
5.63194e-05
5.29302e-05
5.27072e-05
5.01688e-05
4.71838e-05
4.8247e-05
3.88362e-05
3.79228e-05
1.37754e-05
2.15603e-05
1.00092e-05
2.60569e-05
2.59938e-05
3.90357e-05
4.25682e-05
5.08394e-05
5.19647e-05
5.54007e-05
5.34051e-05
5.392e-05
5.25345e-05
4.82623e-05
4.63697e-05
4.143e-05
3.35285e-05
3.28055e-05
2.11319e-05
2.93027e-05
2.0749e-05
3.82468e-05
3.11411e-05
4.40353e-05
4.07893e-05
4.7933e-05
4.80706e-05
5.25555e-05
5.1799e-05
5.32418e-05
5.10926e-05
5.25316e-05
5.11315e-05
4.79225e-05
4.72902e-05
4.51547e-05
3.97405e-05
4.27098e-05
3.23515e-05
3.67215e-05
1.90313e-05
2.86285e-05
1.88235e-05
3.18812e-05
3.18172e-05
4.06553e-05
4.37858e-05
4.91378e-05
4.92576e-05
5.25226e-05
4.8584e-05
5.05993e-05
4.86893e-05
4.45292e-05
4.37266e-05
4.04071e-05
3.27217e-05
3.58191e-05
2.34289e-05
3.31923e-05
2.24626e-05
3.79317e-05
3.04855e-05
4.14518e-05
4.00884e-05
4.45531e-05
4.64256e-05
4.9617e-05
4.80526e-05
5.19173e-05
4.7666e-05
5.04101e-05
4.77718e-05
4.41622e-05
4.48614e-05
4.21371e-05
3.51552e-05
4.13203e-05
2.8204e-05
3.78213e-05
2.15429e-05
3.38691e-05
2.48311e-05
3.55071e-05
3.65183e-05
4.15447e-05
4.52274e-05
4.80371e-05
4.69365e-05
5.04442e-05
4.50129e-05
4.89036e-05
4.56723e-05
4.18377e-05
4.2265e-05
3.99249e-05
3.07593e-05
3.81277e-05
2.37106e-05
3.64511e-05
2.29519e-05
3.87658e-05
2.95104e-05
3.98441e-05
3.99345e-05
4.23129e-05
4.59956e-05
4.72264e-05
4.5507e-05
5.16555e-05
4.39691e-05
4.96202e-05
4.62611e-05
4.10994e-05
4.33092e-05
4.07723e-05
3.18811e-05
4.16515e-05
2.54759e-05
3.97866e-05
2.26545e-05
3.78054e-05
2.78222e-05
3.81517e-05
4.00539e-05
4.07926e-05
4.6712e-05
4.78778e-05
4.48047e-05
4.98061e-05
4.13105e-05
4.81442e-05
4.36403e-05
3.85575e-05
4.21173e-05
3.92382e-05
2.8094e-05
4.07103e-05
2.15394e-05
3.98037e-05
2.14088e-05
3.97722e-05
2.82911e-05
3.83185e-05
4.06588e-05
3.98451e-05
4.61831e-05
4.54165e-05
4.2365e-05
5.1587e-05
4.10051e-05
4.98921e-05
4.43424e-05
3.82413e-05
4.34697e-05
3.9892e-05
2.81269e-05
4.33043e-05
2.23725e-05
4.25775e-05
2.18404e-05
4.13475e-05
2.82665e-05
3.90662e-05
4.23811e-05
3.9805e-05
4.83206e-05
4.66815e-05
4.25969e-05
5.03252e-05
3.62028e-05
4.84435e-05
4.24905e-05
3.35956e-05
4.31087e-05
3.84718e-05
2.37111e-05
4.32054e-05
1.7559e-05
4.28658e-05
1.81862e-05
4.13943e-05
2.55374e-05
3.64914e-05
4.21224e-05
3.58031e-05
4.68767e-05
4.40742e-05
3.77609e-05
5.20017e-05
3.67572e-05
5.11419e-05
4.26667e-05
3.42838e-05
4.50337e-05
3.88727e-05
2.30848e-05
4.64923e-05
1.72729e-05
4.64533e-05
1.81387e-05
4.45545e-05
2.5987e-05
3.88434e-05
4.41574e-05
3.68722e-05
5.02168e-05
4.50796e-05
3.92774e-05
5.08564e-05
2.97496e-05
5.03986e-05
4.01948e-05
2.69542e-05
4.5667e-05
3.72701e-05
1.62197e-05
4.68457e-05
1.03025e-05
4.68147e-05
1.17528e-05
4.37497e-05
1.99926e-05
3.39308e-05
4.31217e-05
3.02339e-05
4.8623e-05
4.11756e-05
3.18135e-05
5.34645e-05
3.03215e-05
5.36181e-05
4.04739e-05
2.72393e-05
4.81954e-05
3.7245e-05
1.58834e-05
5.02554e-05
9.89207e-06
5.04675e-05
1.16641e-05
4.73856e-05
2.01695e-05
3.73169e-05
4.61819e-05
3.1212e-05
5.25317e-05
4.2441e-05
3.31472e-05
5.28021e-05
1.78497e-05
5.55114e-05
3.77863e-05
1.41223e-05
5.20011e-05
3.56035e-05
1.70922e-06
5.36716e-05
-3.47118e-06
5.35339e-05
-1.14857e-06
4.83596e-05
8.06681e-06
2.94476e-05
4.57284e-05
1.904e-05
5.27091e-05
3.75489e-05
2.0907e-05
5.48608e-05
1.95019e-05
5.81961e-05
3.6221e-05
1.55908e-05
5.43564e-05
3.37681e-05
3.09833e-06
5.56367e-05
-2.6839e-06
5.55063e-05
-2.0036e-07
5.0551e-05
8.93375e-06
3.35713e-05
4.72917e-05
2.07085e-05
5.58988e-05
3.6927e-05
2.30812e-05
5.81351e-05
-5.05623e-06
6.8512e-05
3.11231e-05
-1.3267e-05
6.84298e-05
3.03281e-05
-2.79145e-05
6.69519e-05
-3.07355e-05
6.56374e-05
-2.72753e-05
5.74357e-05
-1.74174e-05
2.13848e-05
5.15627e-05
-3.39098e-06
6.32267e-05
2.89529e-05
-1.63976e-06
-0.0135292
-0.0129802
-0.012531
-0.0122033
-0.0120115
-0.0119852
-0.0121405
-0.0124559
-0.0129206
-0.0134986
-0.0141538
-0.0148177
-0.0154089
-0.0158331
-0.0160265
-0.0159968
-0.0157558
-0.0153247
-0.0147621
-0.0141409
0.00193452
0.00199141
0.0019252
0.00179082
0.00163356
0.00151846
0.00138232
0.0012075
0.000972754
0.000687857
0.000341752
-2.51898e-05
-0.000336949
-0.000510443
-0.000465322
-0.00015213
0.000326
0.000859965
0.00135114
0.00172268
-0.00274625
-0.00243847
-0.00222217
-0.00208716
-0.00207311
-0.0021806
-0.00237745
-0.00261733
-0.00295196
-0.00334943
-0.00384912
-0.00437126
-0.00481327
-0.00505149
-0.00507929
-0.00489729
-0.00453525
-0.00405824
-0.00356782
-0.00312184
0.00338177
0.00345923
0.0034778
0.00348054
0.00345794
0.00341388
0.00328822
0.00313277
0.00285448
0.00251831
0.00200366
0.0014507
0.00102368
0.000887669
0.00113731
0.00158337
0.00213122
0.0026208
0.00299149
0.00323979
-0.000285157
-0.000126131
-5.50639e-05
-1.87691e-05
-7.96222e-05
-0.000120749
-0.000230547
-0.000344097
-0.00061102
-0.000961763
-0.00160202
-0.00231542
-0.00284469
-0.00304782
-0.0029155
-0.00251679
-0.00195103
-0.00138188
-0.000895906
-0.000529281
0.00247784
0.00259705
0.00265311
0.00269976
0.00267687
0.00264343
0.00251201
0.00237503
0.00206412
0.00167615
0.0009185
0.000183517
-0.000249191
-0.00019408
0.000213506
0.000771018
0.00130818
0.00174343
0.00207565
0.00231667
0.000290853
0.000348636
0.000355646
0.000357955
0.000326105
0.000334315
0.000266351
0.000205511
-5.07312e-05
-0.000428863
-0.00130556
-0.0021488
-0.00257536
-0.00248165
-0.00197883
-0.00134312
-0.000752276
-0.000311
-3.83248e-06
0.000187773
0.00158478
0.00167339
0.00171325
0.00174979
0.00171279
0.00168286
0.00156681
0.00144671
0.0011507
0.000728854
-0.000200158
-0.000970894
-0.00120041
-0.000857724
-0.000266412
0.000288691
0.000752355
0.00107357
0.00130912
0.00147243
0.00037066
0.000392082
0.000381849
0.000385334
0.000369818
0.000385543
0.000336342
0.000289337
7.14378e-05
-0.000312701
-0.00126937
-0.00205848
-0.00219977
-0.00176804
-0.00110762
-0.000574969
-0.000163428
8.29369e-05
0.000244192
0.000330582
0.000967357
0.00102017
0.00104043
0.00105739
0.00102539
0.000999491
0.0009106
0.000815425
0.000585621
0.000209177
-0.000674578
-0.0012911
-0.00120085
-0.00074759
-0.000183008
0.000203762
0.00050258
0.000677334
0.000812876
0.000902026
0.000329481
0.00034131
0.000332246
0.000340383
0.000328744
0.000342043
0.000306577
0.000283491
0.000133274
-0.000135305
-0.000946282
-0.00156704
-0.00139585
-0.000962897
-0.000461214
-0.000160892
7.02498e-05
0.000184035
0.000269255
0.000309224
0.00058661
0.000615381
0.000623072
0.000630341
0.000604077
0.000584594
0.000521036
0.000460962
0.000313371
8.6984e-05
-0.00057602
-0.000910355
-0.000694862
-0.000325291
3.1643e-05
0.000211607
0.000364233
0.000435757
0.000507698
0.000550796
0.000266181
0.000276512
0.000272378
0.00028185
0.000272382
0.000285903
0.000263664
0.000279659
0.000206646
0.00017144
-0.00037399
-0.00079254
-0.000621553
-0.000393128
-0.000119433
5.42088e-07
0.000124067
0.000173146
0.00022687
0.00024989
0.000364306
0.000379928
0.000381354
0.000384753
0.000362971
0.000349302
0.000303436
0.000274228
0.000198524
0.000146861
-0.00018987
-0.000322401
-0.000185624
-2.69152e-05
0.000136435
0.000181871
0.000256526
0.00027989
0.000322354
0.000343369
0.000207996
0.000217989
0.00021745
0.000226374
0.000218851
0.000232289
0.000220316
0.000262047
0.000254068
0.000423652
0.000205032
-0.000227917
-0.000194066
-0.000162121
-3.66813e-05
1.11298e-05
9.83376e-05
0.000129279
0.000173758
0.00019199
0.000238179
0.000247273
0.000246268
0.000247861
0.000229759
0.000219276
0.000183107
0.000166696
0.000120664
0.000188043
0.000272716
-3.08695e-05
-4.12353e-05
-2.51433e-05
7.11306e-05
9.17482e-05
0.000157819
0.0001757
0.000210397
0.000223729
0.00016273
0.000171317
0.000172232
0.000179313
0.000173072
0.000182708
0.000173579
0.00019991
0.000179848
0.000239165
0.000132108
-8.80834e-05
-6.91177e-05
-9.18596e-05
-6.2328e-06
9.33827e-06
7.47221e-05
9.61991e-05
0.000133352
0.000148108
0.00016799
0.000173256
0.000171581
0.000172182
0.000157563
0.000148851
0.000120838
0.000104895
7.37232e-05
7.41007e-05
9.73943e-05
-5.63849e-06
3.07064e-05
2.03806e-05
7.89498e-05
7.74181e-05
0.000120068
0.000126043
0.000150506
0.000157924
0.000130632
0.000136894
0.000137919
0.000142719
0.000137217
0.000142749
0.000135889
0.000148005
0.00013446
0.000142452
8.56127e-05
-3.37916e-05
-1.73131e-05
-4.70633e-05
1.15532e-05
1.66465e-05
6.5012e-05
7.89e-05
0.000107817
0.000118526
0.000128437
0.000131296
0.000129734
0.000129691
0.000118237
0.000111099
9.01644e-05
7.52067e-05
5.28899e-05
3.85498e-05
4.83428e-05
9.58171e-06
5.01846e-05
3.66931e-05
7.8224e-05
6.99227e-05
9.90433e-05
9.97597e-05
0.000117188
0.000121126
0.000109134
0.000112855
0.000113552
0.00011625
0.000110962
0.000113385
0.000107753
0.000111157
0.000103507
9.60448e-05
6.81759e-05
-4.55278e-06
8.11668e-06
-1.77953e-05
2.39344e-05
2.53178e-05
6.12474e-05
7.04754e-05
9.23975e-05
9.94637e-05
0.000105592
0.000106693
0.000105639
0.000105121
9.6245e-05
9.07311e-05
7.55879e-05
6.25305e-05
4.80593e-05
3.17202e-05
3.88034e-05
2.03342e-05
5.54204e-05
4.28223e-05
7.36716e-05
6.49995e-05
8.58998e-05
8.5195e-05
9.80082e-05
9.99749e-05
9.54046e-05
9.66326e-05
9.72068e-05
9.81205e-05
9.29556e-05
9.32752e-05
8.82315e-05
8.64525e-05
8.32514e-05
7.083e-05
6.0011e-05
1.25775e-05
2.46473e-05
4.37995e-06
3.50818e-05
3.49543e-05
6.11432e-05
6.74468e-05
8.35803e-05
8.76993e-05
9.24033e-05
9.16796e-05
9.14151e-05
9.03441e-05
8.31235e-05
7.90469e-05
6.90752e-05
5.7284e-05
4.98351e-05
3.39191e-05
4.1495e-05
2.79712e-05
5.63827e-05
4.46293e-05
6.87462e-05
6.20652e-05
7.73983e-05
7.71436e-05
8.67593e-05
8.7273e-05
8.70208e-05
8.58007e-05
8.67838e-05
8.63332e-05
8.10485e-05
8.03746e-05
7.57832e-05
7.05488e-05
7.08839e-05
5.68529e-05
5.61641e-05
2.36797e-05
3.70494e-05
2.13112e-05
4.46411e-05
4.41754e-05
6.25066e-05
6.72581e-05
7.8806e-05
8.04432e-05
8.47691e-05
8.20818e-05
8.2916e-05
8.10374e-05
7.48476e-05
7.24662e-05
6.54559e-05
5.47243e-05
5.36998e-05
3.70842e-05
4.73096e-05
3.27337e-05
5.65983e-05
4.56648e-05
6.47878e-05
6.08054e-05
7.19811e-05
7.30123e-05
8.00176e-05
7.93866e-05
8.18528e-05
7.86442e-05
8.06561e-05
7.85829e-05
7.35473e-05
7.26592e-05
6.88685e-05
6.0706e-05
6.43653e-05
4.90233e-05
5.57138e-05
3.12667e-05
4.65728e-05
3.29337e-05
5.19484e-05
5.16755e-05
6.41115e-05
6.84629e-05
7.59821e-05
7.60501e-05
8.06003e-05
7.5085e-05
7.79825e-05
7.51805e-05
6.91005e-05
6.82391e-05
6.32911e-05
5.24922e-05
5.69783e-05
3.9142e-05
5.25541e-05
3.58234e-05
5.75836e-05
4.6363e-05
6.26548e-05
6.1091e-05
6.81635e-05
7.13059e-05
7.61096e-05
7.4149e-05
7.96634e-05
7.33805e-05
7.73899e-05
7.35773e-05
6.80186e-05
6.90352e-05
6.47899e-05
5.44846e-05
6.30321e-05
4.39849e-05
5.79999e-05
3.50527e-05
5.37196e-05
4.0747e-05
5.65567e-05
5.78171e-05
6.49125e-05
7.02275e-05
7.42017e-05
7.25022e-05
7.78407e-05
6.9795e-05
7.54841e-05
7.08032e-05
6.48825e-05
6.59535e-05
6.21617e-05
4.91928e-05
5.98724e-05
3.8876e-05
5.71909e-05
3.69054e-05
5.96747e-05
4.61392e-05
6.14049e-05
6.18838e-05
6.5505e-05
7.1161e-05
7.30533e-05
7.04601e-05
7.90776e-05
6.79992e-05
7.61331e-05
7.10494e-05
6.34694e-05
6.69315e-05
6.28603e-05
4.97759e-05
6.39704e-05
4.03212e-05
6.13386e-05
3.65626e-05
5.92001e-05
4.4555e-05
5.98092e-05
6.25465e-05
6.37199e-05
7.22119e-05
7.36185e-05
6.92574e-05
7.70022e-05
6.43998e-05
7.44759e-05
6.78137e-05
6.00578e-05
6.56165e-05
6.10218e-05
4.50202e-05
6.33688e-05
3.55637e-05
6.20161e-05
3.50588e-05
6.18354e-05
4.49973e-05
5.99621e-05
6.3506e-05
6.23168e-05
7.18077e-05
7.06695e-05
6.60497e-05
7.89969e-05
6.33274e-05
7.6466e-05
6.82654e-05
5.90034e-05
6.71984e-05
6.15639e-05
4.42643e-05
6.66328e-05
3.5766e-05
6.56635e-05
3.51637e-05
6.41213e-05
4.48379e-05
6.08265e-05
6.58332e-05
6.19107e-05
7.44512e-05
7.18532e-05
6.57305e-05
7.76559e-05
5.72161e-05
7.50302e-05
6.58913e-05
5.31011e-05
6.70207e-05
5.98221e-05
3.85398e-05
6.70538e-05
2.96728e-05
6.6645e-05
3.05547e-05
6.46167e-05
4.13705e-05
5.78221e-05
6.58033e-05
5.69164e-05
7.31051e-05
6.86521e-05
5.97117e-05
7.96342e-05
5.68465e-05
7.82891e-05
6.57431e-05
5.28672e-05
6.95053e-05
6.00504e-05
3.67272e-05
7.12651e-05
2.82707e-05
7.13055e-05
2.966e-05
6.86365e-05
4.12295e-05
6.0224e-05
6.841e-05
5.7378e-05
7.715e-05
6.94206e-05
6.05388e-05
7.84886e-05
4.80189e-05
7.78595e-05
6.26219e-05
4.3669e-05
7.07067e-05
5.80322e-05
2.78987e-05
7.233e-05
1.93406e-05
7.24325e-05
2.15315e-05
6.82047e-05
3.36627e-05
5.4457e-05
6.74878e-05
4.91186e-05
7.57257e-05
6.46098e-05
5.13205e-05
8.15924e-05
4.72581e-05
8.19803e-05
6.24787e-05
4.24908e-05
7.42136e-05
5.76759e-05
2.58531e-05
7.69001e-05
1.72606e-05
7.73186e-05
1.99862e-05
7.28065e-05
3.25802e-05
5.7753e-05
7.12367e-05
4.89903e-05
8.0554e-05
6.54709e-05
5.15271e-05
8.10255e-05
3.20693e-05
8.47375e-05
5.90085e-05
2.65023e-05
7.92988e-05
5.55057e-05
8.52191e-06
8.15208e-05
8.50322e-07
8.15228e-05
4.30369e-06
7.43646e-05
1.77647e-05
4.84984e-05
7.09327e-05
3.4229e-05
8.12036e-05
5.93391e-05
3.67065e-05
8.36224e-05
3.21626e-05
8.8588e-05
5.6704e-05
2.61644e-05
8.3029e-05
5.30216e-05
7.88436e-06
8.4712e-05
-3.53711e-07
8.46941e-05
3.40766e-06
7.74749e-05
1.6903e-05
5.24266e-05
7.31003e-05
3.44439e-05
8.54489e-05
5.79355e-05
3.74685e-05
8.72225e-05
4.2982e-06
0.000100642
5.06125e-05
-6.50134e-06
9.95059e-05
4.89352e-05
-2.72359e-05
9.79355e-05
-3.21999e-05
9.65406e-05
-2.731e-05
8.53725e-05
-1.30469e-05
3.84741e-05
7.7917e-05
7.14304e-06
9.38488e-05
4.83576e-05
9.55328e-06
-0.014949
-0.014324
-0.0138102
-0.013435
-0.0132211
-0.0132051
-0.0133942
-0.0137665
-0.014308
-0.0149757
-0.015725
-0.0164768
-0.0171387
-0.017607
-0.0178134
-0.0177664
-0.0174809
-0.0169853
-0.0163458
-0.0156424
0.00141583
0.00152469
0.00149547
0.00138211
0.00123504
0.00111153
0.00093519
0.000703029
0.000392924
2.08452e-05
-0.000418732
-0.000873544
-0.00125295
-0.00146162
-0.00140883
-0.00105278
-0.00050689
0.000109849
0.000686533
0.00113726
-0.00310445
-0.00274831
-0.0025088
-0.00237033
-0.00238069
-0.0025218
-0.00276644
-0.0030712
-0.00348981
-0.00398427