/*--------------------------------*- C++ -*----------------------------------*\
| =========                 |                                                 |
| \\      /  F ield         | OpenFOAM: The Open Source CFD Toolbox           |
|  \\    /   O peration     | Version:  2.4.0                                 |
|   \\  /    A nd           | Web:      www.OpenFOAM.org                      |
|    \\/     M anipulation  |                                                 |
\*---------------------------------------------------------------------------*/
FoamFile
{
    version     2.0;
    format      ascii;
    class       volScalarField;
    location    "380";
    object      p;
}
// * * * * * * * * * * * * * * * * * * * * * * * * * * * * * * * * * * * * * //

dimensions      [0 2 -2 0 0 0 0];

internalField   nonuniform List<scalar> 
283312
(
-0.0062632
-0.00632176
-0.00656135
-0.00690192
-0.00725544
-0.0075527
-0.00778561
-0.00794897
-0.00807508
-0.00818742
-0.00830615
-0.00841787
-0.00849052
-0.00846837
-0.0083179
-0.00804615
-0.00766419
-0.00720878
-0.00676113
-0.00641949
0.00215114
0.00164797
0.00122042
0.000949688
0.000848895
0.000913031
0.00105485
0.00119489
0.00130498
0.00139261
0.00146012
0.00153919
0.0016677
0.00186831
0.002154
0.00252387
0.00284036
0.00299314
0.0029184
0.00261457
-0.00230109
-0.00215081
-0.00192817
-0.00168861
-0.00149696
-0.00140072
-0.00138336
-0.00139087
-0.0014413
-0.00148449
-0.00151625
-0.00149594
-0.00142463
-0.00132423
-0.00127642
-0.00138032
-0.00161753
-0.00190864
-0.00216871
-0.00231131
0.00148218
0.00165396
0.00179707
0.00191144
0.00199416
0.00206251
0.00206898
0.00207486
0.00204098
0.00205093
0.00206744
0.00211467
0.00214443
0.00210469
0.00198057
0.00174316
0.00149614
0.0013145
0.00126049
0.0013341
-0.000743252
-0.000545667
-0.000429523
-0.000351789
-0.000348983
-0.000336811
-0.000348918
-0.000335891
-0.000366534
-0.000344463
-0.00035459
-0.000410738
-0.000585998
-0.000898358
-0.00131793
-0.00165392
-0.00174447
-0.00160513
-0.00132246
-0.00100826
0.00120348
0.00131256
0.0013701
0.00141549
0.00142909
0.00143627
0.00140163
0.00138828
0.00132353
0.00133247
0.00127552
0.00115086
0.000877116
0.000522336
0.000260666
0.000191092
0.000319014
0.000560624
0.000824667
0.00104729
-0.000150056
-0.000110739
-0.00010396
-9.82772e-05
-0.000109655
-8.46908e-05
-8.52337e-05
-5.6826e-05
-8.85874e-05
-6.46627e-05
-0.000181386
-0.000453504
-0.000864656
-0.00126843
-0.0013997
-0.00124782
-0.000936055
-0.000624003
-0.000382092
-0.000229306
0.000762928
0.00081179
0.000835166
0.000859957
0.000848191
0.000844514
0.000806894
0.000786397
0.000717409
0.000706655
0.000546973
0.000232624
-0.00017148
-0.000361018
-0.000308643
-7.76532e-05
0.000206318
0.00043268
0.000594628
0.000697993
-1.2465e-07
1.5566e-06
-9.36892e-06
-1.10075e-05
-1.24456e-05
9.45401e-06
1.12616e-05
3.11121e-05
3.27917e-06
6.47392e-06
-0.000188368
-0.000595712
-0.00100024
-0.00108342
-0.000869201
-0.000578834
-0.000314592
-0.000150491
-5.4479e-05
-1.23455e-05
0.000441257
0.000465742
0.000476459
0.000486896
0.000474045
0.000465632
0.000435201
0.000412842
0.000359518
0.000342219
0.000161535
-0.000209502
-0.000461406
-0.000447336
-0.00021519
9.81293e-06
0.000194285
0.000299537
0.000370279
0.000411885
4.40237e-05
4.19865e-05
3.31025e-05
3.49567e-05
3.42e-05
4.92336e-05
4.9564e-05
6.58161e-05
4.86456e-05
7.32681e-05
-0.000103955
-0.000534161
-0.000715819
-0.000633459
-0.000390168
-0.000205232
-6.73327e-05
-4.38069e-06
3.25352e-05
4.31963e-05
0.000250831
0.000262544
0.000266317
0.000269442
0.000258267
0.000249494
0.000225907
0.000208283
0.000172924
0.00019187
5.50669e-05
-0.000227346
-0.000331877
-0.000225832
-4.53412e-05
6.88638e-05
0.000154494
0.000190918
0.000221079
0.000236997
5.50664e-05
5.50268e-05
5.05332e-05
5.39785e-05
5.27806e-05
6.40335e-05
6.36563e-05
8.71811e-05
8.37914e-05
0.000190106
7.55667e-05
-0.000271965
-0.00035599
-0.000290405
-0.000144976
-6.33181e-05
4.61589e-06
2.86556e-05
4.86436e-05
5.32392e-05
0.000145467
0.000150623
0.000150806
0.000151092
0.00014131
0.000133517
0.000114373
0.000102186
8.15628e-05
0.000138864
9.80278e-05
-5.15056e-05
-0.000108635
-5.34271e-05
3.36304e-05
7.05542e-05
0.000108148
0.000117941
0.000132883
0.000138669
5.28691e-05
5.45834e-05
5.31007e-05
5.66536e-05
5.54432e-05
6.4421e-05
6.47046e-05
9.32227e-05
0.00010518
0.000280041
0.000266966
-5.07279e-05
-0.00013707
-0.000139618
-7.51347e-05
-3.48077e-05
1.11232e-05
2.68764e-05
4.40345e-05
4.89275e-05
8.90168e-05
9.12104e-05
8.99898e-05
8.92002e-05
8.08556e-05
7.39756e-05
5.76132e-05
4.69841e-05
2.89497e-05
8.60064e-05
0.000195868
3.70114e-05
-1.94935e-05
-1.94922e-05
2.14652e-05
3.48573e-05
6.33715e-05
7.01657e-05
8.18882e-05
8.49466e-05
4.63274e-05
4.85251e-05
4.84256e-05
5.12617e-05
5.01558e-05
5.61469e-05
5.59438e-05
7.23164e-05
6.84592e-05
0.000106967
6.64726e-05
-3.07962e-05
-4.01483e-05
-5.48916e-05
-2.09476e-05
-1.19641e-05
1.47129e-05
2.34509e-05
3.72131e-05
4.1775e-05
5.94895e-05
6.02339e-05
5.87272e-05
5.76334e-05
5.09087e-05
4.50362e-05
3.22447e-05
2.18285e-05
9.75433e-06
9.07317e-06
4.07718e-05
9.82682e-06
1.88753e-05
1.65218e-05
3.63373e-05
3.51267e-05
4.90705e-05
4.91823e-05
5.61874e-05
5.70951e-05
3.95508e-05
4.13763e-05
4.16615e-05
4.35147e-05
4.24117e-05
4.58475e-05
4.57952e-05
5.38564e-05
5.14499e-05
5.81427e-05
3.35749e-05
-1.54725e-05
-1.68277e-05
-3.05347e-05
-8.38737e-06
-4.5859e-06
1.4553e-05
2.06192e-05
3.15827e-05
3.53391e-05
4.37677e-05
4.38667e-05
4.25729e-05
4.1481e-05
3.63365e-05
3.16122e-05
2.21243e-05
1.32137e-05
4.41853e-06
-2.43719e-06
1.1558e-05
6.42107e-06
2.27429e-05
2.05279e-05
3.41569e-05
3.02653e-05
3.88816e-05
3.74071e-05
4.20774e-05
4.21707e-05
3.40992e-05
3.52027e-05
3.54566e-05
3.64112e-05
3.51018e-05
3.67099e-05
3.64864e-05
3.97614e-05
3.90681e-05
3.7842e-05
2.53965e-05
-5.2251e-06
-6.20438e-06
-1.71482e-05
-1.95544e-06
4.21165e-07
1.46954e-05
1.92603e-05
2.77961e-05
3.05159e-05
3.50469e-05
3.48241e-05
3.39304e-05
3.29546e-05
2.91433e-05
2.55915e-05
1.8825e-05
1.1722e-05
5.84596e-06
-9.07819e-07
6.81406e-06
6.98387e-06
2.18232e-05
1.97557e-05
2.98131e-05
2.60872e-05
3.20159e-05
3.05675e-05
3.3974e-05
3.38298e-05
3.02421e-05
3.05356e-05
3.07377e-05
3.09549e-05
2.94831e-05
2.98306e-05
2.91977e-05
2.96663e-05
3.00601e-05
2.61812e-05
2.10712e-05
7.95734e-07
1.07499e-06
-6.94141e-06
3.89818e-06
5.44304e-06
1.58358e-05
1.92248e-05
2.55898e-05
2.73316e-05
3.01393e-05
2.95123e-05
2.90715e-05
2.81507e-05
2.52055e-05
2.26129e-05
1.8407e-05
1.2504e-05
9.31622e-06
3.24548e-06
8.51012e-06
8.24215e-06
2.00125e-05
1.76153e-05
2.5562e-05
2.28945e-05
2.72404e-05
2.64389e-05
2.91145e-05
2.8803e-05
2.77275e-05
2.72015e-05
2.75158e-05
2.72564e-05
2.55547e-05
2.52138e-05
2.42492e-05
2.28846e-05
2.39425e-05
1.92678e-05
1.82301e-05
4.73486e-06
6.75929e-06
9.95473e-07
9.0152e-06
1.00748e-05
1.72645e-05
1.98375e-05
2.44517e-05
2.52653e-05
2.72872e-05
2.61677e-05
2.61911e-05
2.51851e-05
2.28054e-05
2.12092e-05
1.83621e-05
1.35277e-05
1.2859e-05
6.63777e-06
1.15894e-05
9.02849e-06
1.84118e-05
1.5887e-05
2.2075e-05
2.06821e-05
2.39746e-05
2.39785e-05
2.60717e-05
2.56161e-05
2.59838e-05
2.49961e-05
2.55815e-05
2.47138e-05
2.31261e-05
2.24123e-05
2.15371e-05
1.86908e-05
2.03069e-05
1.52422e-05
1.6971e-05
7.58763e-06
1.11436e-05
6.41644e-06
1.29348e-05
1.3655e-05
1.85849e-05
2.06932e-05
2.37094e-05
2.40429e-05
2.56839e-05
2.36322e-05
2.44624e-05
2.337e-05
2.10937e-05
2.01423e-05
1.83304e-05
1.39619e-05
1.52046e-05
8.8769e-06
1.39882e-05
9.67824e-06
1.75717e-05
1.46483e-05
1.99095e-05
1.95045e-05
2.15957e-05
2.2607e-05
2.42756e-05
2.34713e-05
2.53564e-05
2.33734e-05
2.45203e-05
2.30646e-05
2.12467e-05
2.12661e-05
1.98751e-05
1.62433e-05
1.92573e-05
1.27376e-05
1.72098e-05
8.94012e-06
1.43005e-05
1.01961e-05
1.53497e-05
1.64847e-05
1.93816e-05
2.15414e-05
2.32051e-05
2.28769e-05
2.43536e-05
2.18389e-05
2.35285e-05
2.18149e-05
1.99171e-05
1.95211e-05
1.84078e-05
1.3394e-05
1.67303e-05
9.65857e-06
1.58036e-05
9.85465e-06
1.75891e-05
1.35271e-05
1.85218e-05
1.87874e-05
2.01233e-05
2.20028e-05
2.27501e-05
2.20933e-05
2.52471e-05
2.14829e-05
2.40938e-05
2.24941e-05
1.97679e-05
2.03926e-05
1.9199e-05
1.46888e-05
1.91807e-05
1.13623e-05
1.79671e-05
9.73455e-06
1.65699e-05
1.2181e-05
1.71614e-05
1.85401e-05
1.91131e-05
2.23206e-05
2.3308e-05
2.18301e-05
2.38662e-05
1.9965e-05
2.29927e-05
2.07985e-05
1.83117e-05
1.95138e-05
1.82015e-05
1.23595e-05
1.82191e-05
8.85257e-06
1.75695e-05
8.98977e-06
1.77368e-05
1.26295e-05
1.73349e-05
1.87852e-05
1.8674e-05
2.17836e-05
2.16497e-05
2.03589e-05
2.50902e-05
2.02253e-05
2.41808e-05
2.15197e-05
1.85584e-05
2.04207e-05
1.88221e-05
1.29561e-05
1.98444e-05
1.00152e-05
1.92187e-05
9.63171e-06
1.85546e-05
1.27619e-05
1.78862e-05
1.97612e-05
1.89134e-05
2.31206e-05
2.27046e-05
2.08925e-05
2.40736e-05
1.72709e-05
2.29604e-05
2.0387e-05
1.57045e-05
1.99739e-05
1.79317e-05
1.03569e-05
1.9401e-05
7.11362e-06
1.89775e-05
7.43412e-06
1.82936e-05
1.11328e-05
1.61266e-05
1.93902e-05
1.64114e-05
2.18579e-05
2.10122e-05
1.78076e-05
2.51558e-05
1.83494e-05
2.46858e-05
2.07561e-05
1.68967e-05
2.11008e-05
1.84001e-05
1.07104e-05
2.13739e-05
7.73188e-06
2.11026e-05
8.06199e-06
2.02338e-05
1.19616e-05
1.798e-05
2.06278e-05
1.77119e-05
2.40099e-05
2.19826e-05
1.94787e-05
2.41602e-05
1.4031e-05
2.37984e-05
1.92413e-05
1.2362e-05
2.11461e-05
1.74428e-05
6.64195e-06
2.11104e-05
3.6089e-06
2.08186e-05
4.25381e-06
1.9296e-05
8.32602e-06
1.46212e-05
1.96916e-05
1.35685e-05
2.2551e-05
1.9491e-05
1.47225e-05
2.58238e-05
1.54992e-05
2.56625e-05
1.97855e-05
1.36968e-05
2.24035e-05
1.76966e-05
7.67322e-06
2.29556e-05
4.59399e-06
2.28232e-05
5.34635e-06
2.14827e-05
9.47294e-06
1.73912e-05
2.16408e-05
1.52247e-05
2.49677e-05
2.08132e-05
1.66284e-05
2.50943e-05
7.58986e-06
2.64012e-05
1.82584e-05
5.40127e-06
2.43611e-05
1.68494e-05
-1.23078e-06
2.46731e-05
-3.70817e-06
2.43284e-05
-2.65077e-06
2.17214e-05
1.90499e-06
1.20303e-05
2.10951e-05
7.47366e-06
2.46213e-05
1.78317e-05
8.76591e-06
2.62194e-05
1.03426e-05
2.751e-05
1.76216e-05
8.21021e-06
2.50153e-05
1.59381e-05
1.71269e-06
2.51572e-05
-1.24797e-06
2.48643e-05
-1.83798e-07
2.26574e-05
4.19576e-06
1.55198e-05
2.18345e-05
1.01657e-05
2.62407e-05
1.79957e-05
1.17851e-05
2.8291e-05
-6.7581e-06
3.4077e-05
1.44224e-05
-1.19571e-05
3.4025e-05
1.38358e-05
-1.99062e-05
3.23751e-05
-2.06534e-05
3.13072e-05
-1.89502e-05
2.70505e-05
-1.40646e-05
6.79126e-06
2.45838e-05
-6.66699e-06
3.09096e-05
1.29218e-05
-5.60338e-06
-0.0109745
-0.0105818
-0.0102757
-0.010064
-0.00994737
-0.00993443
-0.0100548
-0.0102889
-0.0106311
-0.0110572
-0.011545
-0.0120434
-0.0124895
-0.0128053
-0.0129394
-0.0129024
-0.0127026
-0.0123553
-0.0119105
-0.0114312
0.00232864
0.00228298
0.00215186
0.00199035
0.00183627
0.00174619
0.00167707
0.00159186
0.00146972
0.00131534
0.00111325
0.000890069
0.000700744
0.000606171
0.000667853
0.000935502
0.00131228
0.00170524
0.00203722
0.00225231
-0.00233492
-0.00209888
-0.00191277
-0.00177654
-0.00172672
-0.00178239
-0.00190987
-0.00205945
-0.00227717
-0.00253303
-0.00286438
-0.00321563
-0.00351893
-0.00368969
-0.00372702
-0.00365244
-0.0034647
-0.003187
-0.00288553
-0.0025961
0.00290731
0.00297103
0.00299548
0.00301311
0.00301814
0.00301817
0.00295154
0.00287348
0.00270693
0.00251413
0.00218636
0.00181721
0.00151013
0.00137899
0.00150588
0.00176506
0.00210353
0.00240913
0.00264387
0.00280725
-0.000458777
-0.000310846
-0.000237728
-0.000190517
-0.000227833
-0.00024344
-0.000304679
-0.000351422
-0.000506708
-0.000702714
-0.0011231
-0.00162885
-0.00205726
-0.00228651
-0.00231084
-0.00212889
-0.00177151
-0.00136328
-0.000981935
-0.000674505
0.00202137
0.00212315
0.00217386
0.00221974
0.00221611
0.00220606
0.00212326
0.00205173
0.00185628
0.00163236
0.00111913
0.000583081
0.000207791
0.000147031
0.000361275
0.00071855
0.00109654
0.00142418
0.00168813
0.0018864
5.9719e-05
0.000103929
0.000108209
0.000112577
9.03095e-05
0.000112363
8.201e-05
7.47469e-05
-7.2017e-05
-0.000282311
-0.000889569
-0.00153611
-0.00193805
-0.00199263
-0.00169695
-0.00124453
-0.000787135
-0.00043063
-0.000178327
-2.20047e-05
0.00125379
0.00132401
0.00135681
0.00139088
0.00136645
0.00135261
0.00127562
0.00120969
0.0010217
0.00077022
0.000116098
-0.000486897
-0.000752482
-0.000568664
-0.000171309
0.000239852
0.000600114
0.000853719
0.00103943
0.00116671
0.000172888
0.000182868
0.00017056
0.000171769
0.000164317
0.000188579
0.000168681
0.00016383
4.06453e-05
-0.00018136
-0.000862585
-0.00150091
-0.00171413
-0.00145211
-0.000966539
-0.000551849
-0.000224959
-3.19981e-05
8.96758e-05
0.000149605
0.000742142
0.000782327
0.000798651
0.00081426
0.000791508
0.00077625
0.000716393
0.000661305
0.000517235
0.000289654
-0.000336676
-0.000845204
-0.000853572
-0.000554624
-0.000131886
0.000166435
0.00039776
0.000529353
0.000629662
0.0006942
0.000178396
0.000182246
0.000172061
0.000177827
0.00017248
0.000190788
0.00017613
0.000180075
9.83123e-05
-4.73031e-05
-0.000622879
-0.00115523
-0.00109546
-0.000792858
-0.000406699
-0.000171899
6.05092e-06
8.82063e-05
0.000146632
0.000169563
0.000435763
0.000456727
0.00046277
0.000468939
0.000449815
0.00043682
0.000392982
0.00035694
0.000265322
0.000138882
-0.000326111
-0.000618977
-0.000505643
-0.000238784
3.35557e-05
0.000170462
0.000283374
0.000332179
0.000381962
0.000410691
0.000155446
0.000160129
0.000155247
0.000162602
0.000157903
0.000173356
0.000164112
0.000190506
0.000155837
0.000180601
-0.000199563
-0.000574646
-0.000488421
-0.00032748
-0.000117374
-2.52815e-05
6.65225e-05
9.90644e-05
0.0001348
0.00014718
0.000261822
0.000272474
0.000273315
0.000275685
0.000259464
0.000249364
0.000216371
0.00019766
0.000150611
0.000141979
-8.05197e-05
-0.000197771
-0.000125214
-1.01288e-05
0.000111777
0.000143219
0.000194859
0.000207461
0.000235338
0.000247915
0.000127247
0.000133045
0.000131907
0.000138982
0.000135093
0.000148584
0.000144196
0.000185145
0.000191473
0.000365363
0.000228834
-0.000146382
-0.000154516
-0.000139811
-4.83496e-05
-1.05664e-05
5.4456e-05
7.56491e-05
0.000106462
0.000117402
0.000165905
0.000171622
0.000170449
0.000171153
0.00015752
0.000149126
0.000122125
0.000109598
7.79287e-05
0.000144938
0.000251598
8.31603e-06
-2.2997e-05
-1.51583e-05
5.41467e-05
6.76171e-05
0.00011478
0.000125601
0.000148901
0.0001566
0.000102484
0.000107988
0.000108476
0.000114114
0.000110812
0.000120204
0.000116414
0.000141194
0.000130353
0.00018565
0.000108638
-6.10721e-05
-5.49998e-05
-7.63187e-05
-1.49274e-05
-4.47619e-06
4.259e-05
5.71389e-05
8.32275e-05
9.27215e-05
0.000114147
0.000117123
0.000115458
0.0001154
0.000104411
9.7225e-05
7.6153e-05
6.31458e-05
4.13396e-05
4.32408e-05
7.52808e-05
4.56928e-06
2.90788e-05
2.14823e-05
6.15056e-05
5.81284e-05
8.66096e-05
8.84841e-05
0.000104247
0.000107935
8.36794e-05
8.78452e-05
8.86413e-05
9.24719e-05
8.94652e-05
9.50075e-05
9.2185e-05
0.000104192
9.6722e-05
0.000106145
6.34032e-05
-2.57687e-05
-1.74666e-05
-4.13773e-05
2.44837e-07
3.47488e-06
3.80872e-05
4.76743e-05
6.81454e-05
7.52929e-05
8.57873e-05
8.72034e-05
8.57313e-05
8.52945e-05
7.67947e-05
7.09087e-05
5.52114e-05
4.31752e-05
2.73292e-05
1.70868e-05
3.10662e-05
8.91412e-06
3.95536e-05
3.0921e-05
5.91295e-05
5.14365e-05
7.02628e-05
6.88433e-05
7.98004e-05
8.13786e-05
7.05426e-05
7.30342e-05
7.36522e-05
7.58324e-05
7.27537e-05
7.54711e-05
7.30212e-05
7.74612e-05
7.37042e-05
7.00201e-05
4.88284e-05
-5.58988e-06
5.02439e-07
-1.95371e-05
9.75584e-06
1.08544e-05
3.66128e-05
4.32441e-05
5.88789e-05
6.3698e-05
6.97445e-05
7.01212e-05
6.91492e-05
6.85075e-05
6.20683e-05
5.75839e-05
4.6325e-05
3.6109e-05
2.57394e-05
1.41739e-05
2.27172e-05
1.40134e-05
4.07018e-05
3.28568e-05
5.37659e-05
4.63864e-05
5.96963e-05
5.78083e-05
6.58067e-05
6.63654e-05
6.19414e-05
6.2724e-05
6.32458e-05
6.40474e-05
6.08908e-05
6.16765e-05
5.91827e-05
5.91554e-05
5.81471e-05
5.01474e-05
4.17978e-05
6.18656e-06
1.24203e-05
-2.86179e-06
1.84569e-05
1.86475e-05
3.7399e-05
4.20624e-05
5.35962e-05
5.64476e-05
6.06247e-05
5.98759e-05
5.95716e-05
5.86622e-05
5.35478e-05
5.02777e-05
4.30885e-05
3.40948e-05
2.87333e-05
1.7616e-05
2.47547e-05
1.81973e-05
3.95082e-05
3.2007e-05
4.83855e-05
4.28771e-05
5.26035e-05
5.14978e-05
5.75538e-05
5.73768e-05
5.66134e-05
5.57029e-05
5.64861e-05
5.62902e-05
5.29018e-05
5.26864e-05
5.01482e-05
4.71731e-05
4.82356e-05
3.88344e-05
3.79204e-05
1.37829e-05
2.156e-05
1.00093e-05
2.60438e-05
2.59777e-05
3.90088e-05
4.25391e-05
5.08043e-05
5.19297e-05
5.53701e-05
5.3377e-05
5.38914e-05
5.25102e-05
4.82386e-05
4.63531e-05
4.14132e-05
3.35225e-05
3.27975e-05
2.11367e-05
2.9302e-05
2.07563e-05
3.82448e-05
3.11417e-05
4.40256e-05
4.07787e-05
4.79128e-05
4.80486e-05
5.25275e-05
5.17707e-05
5.32157e-05
5.10691e-05
5.25079e-05
5.11121e-05
4.79039e-05
4.72784e-05
4.51418e-05
3.9738e-05
4.27032e-05
3.23559e-05
3.67203e-05
1.90399e-05
2.8628e-05
1.88254e-05
3.18719e-05
3.18071e-05
4.06364e-05
4.3766e-05
4.9113e-05
4.92331e-05
5.25009e-05
4.85645e-05
5.05796e-05
4.86732e-05
4.4514e-05
4.37175e-05
4.03964e-05
3.27219e-05
3.58138e-05
2.34366e-05
3.31916e-05
2.24713e-05
3.79305e-05
3.04879e-05
4.14446e-05
4.00816e-05
4.45381e-05
4.64102e-05
4.95968e-05
4.80325e-05
5.18988e-05
4.76495e-05
5.03938e-05
4.7759e-05
4.41506e-05
4.48554e-05
4.21291e-05
3.51584e-05
4.13162e-05
2.82126e-05
3.78206e-05
2.15526e-05
3.38684e-05
2.48344e-05
3.55003e-05
3.65122e-05
4.15308e-05
4.52138e-05
4.80192e-05
4.6919e-05
5.04287e-05
4.49993e-05
4.88901e-05
4.56616e-05
4.18284e-05
4.22605e-05
3.99179e-05
3.0764e-05
3.81235e-05
2.37206e-05
3.645e-05
2.29618e-05
3.87646e-05
2.95142e-05
3.98386e-05
3.99306e-05
4.23016e-05
4.59849e-05
4.72116e-05
4.54925e-05
5.16422e-05
4.39576e-05
4.96091e-05
4.62527e-05
4.10928e-05
4.3307e-05
4.07676e-05
3.18885e-05
4.16483e-05
2.54876e-05
3.97856e-05
2.26655e-05
3.78045e-05
2.78266e-05
3.81465e-05
4.00506e-05
4.0782e-05
4.67026e-05
4.78646e-05
4.47918e-05
4.97952e-05
4.13009e-05
4.81351e-05
4.3633e-05
3.85525e-05
4.21155e-05
3.92332e-05
2.81024e-05
4.07058e-05
2.15519e-05
3.98014e-05
2.14199e-05
3.97706e-05
2.82961e-05
3.83141e-05
4.06571e-05
3.98362e-05
4.6176e-05
4.54058e-05
4.23543e-05
5.15775e-05
4.09968e-05
4.98846e-05
4.43368e-05
3.82387e-05
4.34696e-05
3.98891e-05
2.8138e-05
4.33007e-05
2.23871e-05
4.25755e-05
2.18528e-05
4.1346e-05
2.8272e-05
3.90621e-05
4.23799e-05
3.97965e-05
4.83143e-05
4.66716e-05
4.25871e-05
5.03178e-05
3.61962e-05
4.84374e-05
4.24852e-05
3.35944e-05
4.31079e-05
3.84677e-05
2.3723e-05
4.31993e-05
1.75741e-05
4.28615e-05
1.81988e-05
4.13918e-05
2.55436e-05
3.64878e-05
4.21228e-05
3.5796e-05
4.68728e-05
4.40666e-05
3.7753e-05
5.1995e-05
3.67512e-05
5.11369e-05
4.26628e-05
3.42845e-05
4.50343e-05
3.88707e-05
2.30995e-05
4.64868e-05
1.72906e-05
4.64492e-05
1.8153e-05
4.45519e-05
2.59937e-05
3.88399e-05
4.41578e-05
3.68649e-05
5.02131e-05
4.50721e-05
3.92694e-05
5.08521e-05
2.97453e-05
5.03946e-05
4.01907e-05
2.69569e-05
4.56656e-05
3.72657e-05
1.62363e-05
4.68361e-05
1.03214e-05
4.6807e-05
1.17677e-05
4.37455e-05
2.00002e-05
3.39279e-05
4.31241e-05
3.0228e-05
4.86222e-05
4.11709e-05
3.18075e-05
5.34603e-05
3.03173e-05
5.36148e-05
4.04708e-05
2.72434e-05
4.81949e-05
3.72429e-05
1.59023e-05
5.02463e-05
9.91353e-06
5.046e-05
1.16808e-05
4.73813e-05
2.01778e-05
3.73137e-05
4.6184e-05
3.12054e-05
5.25307e-05
4.24357e-05
3.31404e-05
5.28009e-05
1.78475e-05
5.55087e-05
3.77825e-05
1.41305e-05
5.19965e-05
3.5598e-05
1.73333e-06
5.36552e-05
-3.44602e-06
5.35202e-05
-1.12939e-06
4.83522e-05
8.07672e-06
2.94454e-05
4.5733e-05
1.90345e-05
5.2712e-05
3.7547e-05
2.09019e-05
5.48593e-05
1.94993e-05
5.81936e-05
3.62178e-05
1.55994e-05
5.43525e-05
3.37646e-05
3.12363e-06
5.56209e-05
-2.65698e-06
5.5493e-05
-1.79845e-07
5.05436e-05
8.94422e-06
3.35687e-05
4.72957e-05
2.07025e-05
5.59012e-05
3.69238e-05
2.30752e-05
5.81381e-05
-5.0559e-06
6.85093e-05
3.11191e-05
-1.3249e-05
6.84166e-05
3.03203e-05
-2.78753e-05
6.69218e-05
-3.06979e-05
6.5612e-05
-2.72472e-05
5.74218e-05
-1.74029e-05
2.13834e-05
5.15699e-05
-3.39674e-06
6.32356e-05
2.8954e-05
-1.64557e-06
-0.0135138
-0.0129644
-0.0125148
-0.0121869
-0.0119946
-0.0119677
-0.0121224
-0.0124372
-0.0129012
-0.0134787
-0.0141336
-0.0147975
-0.0153891
-0.0158143
-0.0160085
-0.0159795
-0.0157393
-0.015309
-0.0147468
-0.0141257
0.00193878
0.00199579
0.00192944
0.00179488
0.0016374
0.00152196
0.00138573
0.00121082
0.000976014
0.000691068
0.000344889
-2.22003e-05
-0.000334257
-0.000508054
-0.000463434
-0.000150756
0.000327664
0.000862239
0.00135421
0.0017265
-0.0027436
-0.00243516
-0.00221818
-0.00208261
-0.00206809
-0.0021752
-0.00237178
-0.00261128
-0.00294557
-0.00334274
-0.00384233
-0.00436472
-0.0048074
-0.00504665
-0.00507526
-0.00489377
-0.00453235
-0.00405576
-0.00356563
-0.00311961
0.00337866
0.00345648
0.00347535
0.00347835
0.0034559
0.003412
0.00328641
0.00313108
0.00285292
0.00251686
0.00200227
0.0014492
0.00102165
0.000885007
0.00113409
0.00157966
0.00212732
0.00261689
0.00298774
0.00323634
-0.000285666
-0.000126312
-5.49383e-05
-1.83081e-05
-7.89041e-05
-0.000119794
-0.000229403
-0.000342729
-0.00060939
-0.000959845
-0.00159967
-0.00231275
-0.0028423
-0.0030464
-0.00291519
-0.00251738
-0.00195202
-0.00138292
-0.000896843
-0.000530037
0.00247412
0.00259358
0.00264985
0.00269669
0.00267397
0.00264066
0.00250935
0.00237247
0.00206176
0.00167409
0.000917379
0.000183657
-0.000248735
-0.000194437
0.0002115
0.00076772
0.00130417
0.00173921
0.00207151
0.00231273
0.000289358
0.000347417
0.000354669
0.000357214
0.0003255
0.000333794
0.000265886
0.000205088
-5.09335e-05
-0.000428614
-0.0013036
-0.00214433
-0.0025699
-0.00247705
-0.0019763
-0.00134267
-0.000753213
-0.000312608
-5.63426e-06
0.000186064
0.00158202
0.00167076
0.00171073
0.0017474
0.00171051
0.00168068
0.00156472
0.00144471
0.00114901
0.00072773
-0.000199197
-0.000967233
-0.00119501
-0.000853462
-0.000264621
0.000288143
0.000750358
0.00107091
0.00130625
0.00146958
0.000369306
0.000390919
0.000380849
0.000384476
0.00036903
0.00038477
0.000335583
0.000288566
7.08604e-05
-0.000312843
-0.00126774
-0.0020545
-0.00219401
-0.0017631
-0.00110509
-0.000574534
-0.000164291
8.15105e-05
0.000242609
0.000329074
0.000965617
0.00101849
0.00103879
0.00105582
0.0010239
0.000998044
0.000909232
0.000814109
0.000584554
0.000208516
-0.000673792
-0.00128848
-0.00119733
-0.000744624
-0.000181727
0.000203621
0.000501502
0.000675807
0.000811156
0.000900271
0.000328514
0.000340448
0.000331475
0.000339692
0.000328088
0.000341392
0.000305934
0.00028283
0.000132739
-0.000135599
-0.000945476
-0.00156486
-0.00139307
-0.000960663
-0.00046023
-0.000160913
6.95703e-05
0.000183061
0.00026818
0.00030818
0.000585564
0.000614354
0.000622063
0.000629372
0.000603148
0.000583692
0.000520193
0.000460135
0.000312709
8.64711e-05
-0.000575722
-0.000909109
-0.000693352
-0.000324114
3.20515e-05
0.000211399
0.000363583
0.00043488
0.000506699
0.00054976
0.000265532
0.000275917
0.000271829
0.000281347
0.000271899
0.00028543
0.0002632
0.000279186
0.000206232
0.000171091
-0.000373708
-0.000791695
-0.000620545
-0.000392396
-0.000119227
3.43696e-07
0.000123576
0.000172519
0.000226181
0.000249211
0.000363677
0.000379308
0.00038074
0.000384163
0.000362403
0.000348753
0.000302932
0.000273725
0.000198133
0.000146465
-0.000189864
-0.000321971
-0.000185128
-2.65962e-05
0.000136451
0.000181651
0.000256115
0.000279374
0.000321766
0.000342756
0.000207565
0.000217586
0.000217069
0.000226022
0.000218512
0.000231965
0.000220004
0.000261741
0.000253795
0.000423383
0.000205021
-0.000227854
-0.000193927
-0.000162032
-3.67699e-05
1.09056e-05
9.79927e-05
0.000128875
0.000173317
0.00019155
0.000237793
0.000246892
0.000245889
0.000247498
0.00022941
0.000218943
0.00018281
0.000166408
0.000120468
0.00018785
0.000272686
-3.08381e-05
-4.12367e-05
-2.51908e-05
7.10208e-05
9.15639e-05
0.000157555
0.000175387
0.000210041
0.000223357
0.000162442
0.000171044
0.000171969
0.00017907
0.000172838
0.000182491
0.000173375
0.000199723
0.000179693
0.000239064
0.000132106
-8.80775e-05
-6.9082e-05
-9.1869e-05
-6.3291e-06
9.18555e-06
7.45014e-05
9.59438e-05
0.000133068
0.000147822
0.000167745
0.000173015
0.000171339
0.000171954
0.000157342
0.000148645
0.000120658
0.000104731
7.36168e-05
7.40179e-05
9.73724e-05
-5.63064e-06
3.06992e-05
2.0349e-05
7.88755e-05
7.73072e-05
0.000119907
0.000125851
0.000150283
0.000157691
0.000130439
0.00013671
0.000137737
0.000142552
0.000137055
0.000142604
0.000135755
0.000147887
0.000134367
0.000142387
8.56039e-05
-3.37877e-05
-1.73019e-05
-4.70782e-05
1.14888e-05
1.65477e-05
6.48693e-05
7.87358e-05
0.000107631
0.000118337
0.000128276
0.000131139
0.000129576
0.000129543
0.000118093
0.00011097
9.0051e-05
7.51117e-05
5.28268e-05
3.85136e-05
4.83276e-05
9.58445e-06
5.01755e-05
3.66743e-05
7.81754e-05
6.98534e-05
9.89395e-05
9.96372e-05
0.000117043
0.000120974
0.000109002
0.000112729
0.000113426
0.000116135
0.000110851
0.000113288
0.000107664
0.000111084
0.000103449
9.60038e-05
6.81643e-05
-4.54798e-06
8.11818e-06
-1.78064e-05
2.38899e-05
2.52532e-05
6.11527e-05
7.03672e-05
9.22728e-05
9.93363e-05
0.000105482
0.000106587
0.000105532
0.000105023
9.61492e-05
9.06489e-05
7.55137e-05
6.24745e-05
4.80189e-05
3.1704e-05
3.8793e-05
2.03363e-05
5.54114e-05
4.28107e-05
7.36377e-05
6.49542e-05
8.58297e-05
8.51132e-05
9.79098e-05
9.98722e-05
9.53122e-05
9.65448e-05
9.71186e-05
9.80414e-05
9.28788e-05
9.32115e-05
8.81718e-05
8.64083e-05
8.32138e-05
7.0808e-05
6.00002e-05
1.2583e-05
2.46445e-05
4.37277e-06
3.505e-05
3.49114e-05
6.10784e-05
6.73738e-05
8.34945e-05
8.76116e-05
9.23264e-05
9.16061e-05
9.13405e-05
9.02772e-05
8.30582e-05
7.89938e-05
6.90255e-05
5.72513e-05
4.98075e-05
3.39126e-05
4.14869e-05
2.79749e-05
5.63748e-05
4.46225e-05
6.87212e-05
6.20342e-05
7.73486e-05
7.70868e-05
8.66902e-05
8.72014e-05
8.69552e-05
8.57389e-05
8.67215e-05
8.62784e-05
8.09952e-05
8.03328e-05
7.57427e-05
7.05239e-05
7.08591e-05
5.68444e-05
5.61553e-05
2.3686e-05
3.70446e-05
2.13071e-05
4.46176e-05
4.41464e-05
6.24608e-05
6.72075e-05
7.87452e-05
8.03815e-05
8.47139e-05
8.20299e-05
8.28633e-05
8.09912e-05
7.48025e-05
7.24319e-05
6.54218e-05
5.47067e-05
5.36801e-05
3.70839e-05
4.73027e-05
3.27396e-05
5.65914e-05
4.56614e-05
6.47686e-05
6.07836e-05
7.19444e-05
7.29718e-05
7.99674e-05
7.93352e-05
8.18054e-05
7.86e-05
8.06116e-05
7.85446e-05
7.35103e-05
7.26323e-05
6.88406e-05
6.0694e-05
6.43481e-05
4.90236e-05
5.57065e-05
3.12742e-05
4.65673e-05
3.29319e-05
5.19303e-05
5.16556e-05
6.40778e-05
6.8427e-05
7.5938e-05
7.60056e-05
8.056e-05
7.50476e-05
7.79446e-05
7.5148e-05
6.90693e-05
6.8217e-05
6.32671e-05
5.24847e-05
5.69633e-05
3.91466e-05
5.25475e-05
3.58312e-05
5.75773e-05
4.6362e-05
6.26394e-05
6.10756e-05
6.81355e-05
7.12764e-05
7.60724e-05
7.41113e-05
7.96285e-05
7.33484e-05
7.73578e-05
7.35502e-05
6.79931e-05
6.90181e-05
6.47702e-05
5.44817e-05
6.3019e-05
4.39914e-05
5.79932e-05
3.50618e-05
5.37139e-05
4.07472e-05
5.65423e-05
5.78033e-05
6.48869e-05
7.02015e-05
7.41688e-05
7.24692e-05
7.78108e-05
6.97676e-05
7.54566e-05
7.07798e-05
6.4861e-05
6.59394e-05
6.21441e-05
4.91927e-05
5.98598e-05
3.88847e-05
5.71838e-05
3.6915e-05
5.96684e-05
4.61402e-05
6.13922e-05
6.1873e-05
6.54829e-05
7.11394e-05
7.30252e-05
7.04319e-05
7.90516e-05
6.79754e-05
7.61098e-05
7.10297e-05
6.34524e-05
6.69209e-05
6.28461e-05
4.97798e-05
6.39591e-05
4.03324e-05
6.13316e-05
3.65736e-05
5.9194e-05
4.4557e-05
5.97972e-05
6.25371e-05
6.36994e-05
7.21929e-05
7.35934e-05
6.92323e-05
7.698e-05
6.43794e-05
7.44558e-05
6.77963e-05
6.00438e-05
6.56071e-05
6.10081e-05
4.50261e-05
6.33563e-05
3.55764e-05
6.20076e-05
3.50702e-05
6.18285e-05
4.50001e-05
5.99512e-05
6.34989e-05
6.22989e-05
7.17922e-05
7.06481e-05
6.60281e-05
7.89773e-05
6.33093e-05
7.64488e-05
6.82508e-05
5.89929e-05
6.71915e-05
6.15529e-05
4.42741e-05
6.66212e-05
3.57816e-05
6.5655e-05
3.51769e-05
6.41144e-05
4.48416e-05
6.08161e-05
6.58271e-05
6.18937e-05
7.44374e-05
7.18336e-05
6.57107e-05
7.76396e-05
5.72007e-05
7.50152e-05
6.58777e-05
5.30931e-05
6.70135e-05
5.98101e-05
3.85514e-05
6.70393e-05
2.96896e-05
6.66337e-05
3.05684e-05
6.46085e-05
4.13751e-05
5.78126e-05
6.57994e-05
5.69014e-05
7.30947e-05
6.86359e-05
5.96947e-05
7.96195e-05
5.68324e-05
7.82762e-05
6.57316e-05
5.28623e-05
6.94997e-05
6.00412e-05
3.67427e-05
7.1251e-05
2.8291e-05
7.1294e-05
2.96759e-05
6.8628e-05
4.12351e-05
6.02147e-05
6.84067e-05
5.73632e-05
7.71406e-05
6.94052e-05
6.05225e-05
7.84772e-05
4.80073e-05
7.78482e-05
6.26104e-05
4.3667e-05
7.06991e-05
5.80205e-05
2.79171e-05
7.23108e-05
1.93629e-05
7.24166e-05
2.15486e-05
6.81942e-05
3.36695e-05
5.44486e-05
6.7487e-05
4.91055e-05
7.57201e-05
6.45981e-05
5.13067e-05
8.15817e-05
4.7247e-05
8.19702e-05
6.24687e-05
4.24912e-05
7.42068e-05
5.76667e-05
2.58751e-05
7.68807e-05
1.72866e-05
7.73022e-05
2.00057e-05
7.27955e-05
3.2588e-05
5.77444e-05
7.1236e-05
4.89766e-05
8.05487e-05
6.5459e-05
5.15128e-05
8.10187e-05
3.20609e-05
8.47284e-05
5.8998e-05
2.65079e-05
7.92872e-05
5.54927e-05
8.55048e-06
8.14926e-05
8.81053e-07
8.14987e-05
4.32644e-06
7.435e-05
1.77746e-05
4.84909e-05
7.09352e-05
3.42168e-05
8.12035e-05
5.93316e-05
3.66944e-05
8.36159e-05
3.2154e-05
8.85793e-05
5.66943e-05
2.61713e-05
8.30176e-05
5.30107e-05
7.91534e-06
8.46833e-05
-3.20144e-07
8.46695e-05
3.43248e-06
7.74596e-05
1.69139e-05
5.24189e-05
7.31025e-05
3.44312e-05
8.54486e-05
5.79269e-05
3.74555e-05
8.72215e-05
4.29307e-06
0.000100633
5.06019e-05
-6.48381e-06
9.94839e-05
4.89193e-05
-2.71894e-05
9.78902e-05
-3.21543e-05
9.6502e-05
-2.72767e-05
8.53499e-05
-1.30316e-05
3.84679e-05
7.79233e-05
7.13062e-06
9.38566e-05
4.83544e-05
9.54062e-06
-0.0149317
-0.0143062
-0.013792
-0.0134164
-0.0132021
-0.0131856
-0.0133741
-0.0137458
-0.0142867
-0.0149539
-0.015703
-0.0164549
-0.0171173
-0.0175865
-0.0177938
-0.0177475
-0.0174628
-0.0169678
-0.0163287
-0.0156253
0.00142145
0.00153034
0.00150091
0.00138732
0.0012399
0.00111613
0.000939718
0.00070748
0.000397309
2.51915e-05
-0.000414448
-0.000869399
-0.00124909
-0.00145804
-0.00140569
-0.00105006
-0.000503806
0.000113599
0.00069109
0.0011425
-0.00310077
-0.00274398
-0.00250383
-0.00236486
-0.00237474
-0.00251547
-0.00275984
-0.00306421