/*--------------------------------*- C++ -*----------------------------------*\
| =========                 |                                                 |
| \\      /  F ield         | OpenFOAM: The Open Source CFD Toolbox           |
|  \\    /   O peration     | Version:  2.4.0                                 |
|   \\  /    A nd           | Web:      www.OpenFOAM.org                      |
|    \\/     M anipulation  |                                                 |
\*---------------------------------------------------------------------------*/
FoamFile
{
    version     2.0;
    format      ascii;
    class       volScalarField;
    location    "680";
    object      p;
}
// * * * * * * * * * * * * * * * * * * * * * * * * * * * * * * * * * * * * * //

dimensions      [0 2 -2 0 0 0 0];

internalField   nonuniform List<scalar> 
283312
(
-0.00626978
-0.00632801
-0.00656755
-0.00690842
-0.00726266
-0.00756107
-0.0077955
-0.00796042
-0.00808797
-0.00820143
-0.00832083
-0.0084327
-0.00850499
-0.00848197
-0.00833053
-0.00805781
-0.0076746
-0.00721792
-0.00676916
-0.00642666
0.00215305
0.00164906
0.00122071
0.000949317
0.000848024
0.000911858
0.00105347
0.00119347
0.00130362
0.00139133
0.00145892
0.00153808
0.00166687
0.00186793
0.0021545
0.00252559
0.00284279
0.00299605
0.00292137
0.00261717
-0.00230083
-0.00215175
-0.00193004
-0.00169108
-0.0014998
-0.00140381
-0.00138655
-0.00139422
-0.00144485
-0.00148829
-0.00152026
-0.00149985
-0.00142784
-0.00132603
-0.00127674
-0.00137921
-0.00161514
-0.0019058
-0.00216622
-0.00230979
0.00148386
0.0016553
0.00179834
0.00191274
0.00199556
0.00206396
0.0020705
0.0020764
0.00204249
0.00205233
0.0020687
0.00211617
0.00214704
0.00210894
0.0019865
0.00174994
0.00150254
0.00131967
0.00126416
0.00133653
-0.000744072
-0.000546439
-0.000430235
-0.000352509
-0.000349739
-0.00033761
-0.00034976
-0.000336805
-0.000367563
-0.000345707
-0.000356151
-0.000412028
-0.000585789
-0.000895927
-0.00131411
-0.00165025
-0.0017422
-0.00160444
-0.0013228
-0.00100902
0.00120489
0.00131408
0.00137169
0.0014171
0.0014307
0.00143788
0.00140325
0.00138992
0.00132512
0.00133392
0.00127648
0.00115178
0.000879305
0.000526136
0.00026508
0.000194644
0.000321345
0.000562122
0.000825891
0.00104856
-0.000150008
-0.000110699
-0.000103955
-9.83339e-05
-0.000109735
-8.47655e-05
-8.52801e-05
-5.68165e-05
-8.85958e-05
-6.48351e-05
-0.000182347
-0.000455259
-0.000865875
-0.00126904
-0.00140013
-0.00124846
-0.000936769
-0.000624535
-0.000382343
-0.000229351
0.000764042
0.000812922
0.000836307
0.00086109
0.000849297
0.000845614
0.000807982
0.000787505
0.000718445
0.000707505
0.000546891
0.000231521
-0.000173219
-0.000362322
-0.000309439
-7.78903e-05
0.000206565
0.000433314
0.000595533
0.000699039
1.36303e-07
1.74538e-06
-9.23924e-06
-1.0929e-05
-1.23724e-05
9.55832e-06
1.1405e-05
3.1332e-05
3.49763e-06
6.60497e-06
-0.00018895
-0.000597241
-0.00100268
-0.00108576
-0.000870727
-0.000579571
-0.000314747
-0.000150329
-5.41797e-05
-1.20383e-05
0.000441918
0.000466407
0.000477131
0.000487561
0.000474694
0.000466278
0.000435829
0.000413486
0.0003601
0.000342698
0.000161458
-0.000210371
-0.000462737
-0.000448539
-0.000215781
9.7484e-06
0.0001946
0.000300046
0.000370889
0.000412529
4.42301e-05
4.21423e-05
3.32203e-05
3.50466e-05
3.42913e-05
4.93481e-05
4.97056e-05
6.60118e-05
4.88455e-05
7.34409e-05
-0.000104187
-0.000535004
-0.000716971
-0.000634399
-0.000390601
-0.000205291
-6.71559e-05
-4.11657e-06
3.28172e-05
4.3446e-05
0.000251187
0.000262905
0.000266686
0.000269807
0.000258624
0.000249852
0.000226248
0.000208643
0.000173238
0.000192176
5.50962e-05
-0.000227748
-0.000332366
-0.000226202
-4.54259e-05
6.89707e-05
0.000154734
0.000191216
0.000221412
0.000237342
5.5204e-05
5.5136e-05
5.06224e-05
5.40525e-05
5.28563e-05
6.41198e-05
6.37581e-05
8.73129e-05
8.39357e-05
0.00019027
7.55052e-05
-0.000272262
-0.000356339
-0.000290635
-0.000145009
-6.32322e-05
4.77834e-06
2.88372e-05
4.88256e-05
5.33995e-05
0.000145655
0.000150814
0.000151002
0.000151286
0.0001415
0.000133708
0.000114549
0.000102379
8.17191e-05
0.000139065
9.8103e-05
-5.163e-05
-0.000108761
-5.34799e-05
3.3676e-05
7.06538e-05
0.00010829
0.0001181
0.000133058
0.000138849
5.29583e-05
5.46571e-05
5.31647e-05
5.67082e-05
5.54983e-05
6.44779e-05
6.47682e-05
9.32978e-05
0.000105264
0.000280156
0.000267025
-5.06552e-05
-0.000137031
-0.000139588
-7.50597e-05
-3.4713e-05
1.12371e-05
2.699e-05
4.41467e-05
4.90273e-05
8.91168e-05
9.13108e-05
9.00932e-05
8.93017e-05
8.09548e-05
7.40744e-05
5.76992e-05
4.70769e-05
2.90055e-05
8.6076e-05
0.000195901
3.70549e-05
-1.94086e-05
-1.94041e-05
2.15378e-05
3.4931e-05
6.34533e-05
7.02502e-05
8.19809e-05
8.50413e-05
4.63846e-05
4.85736e-05
4.84695e-05
5.1299e-05
5.01929e-05
5.61819e-05
5.59806e-05
7.23541e-05
6.84965e-05
0.000106985
6.64694e-05
-3.07767e-05
-4.01416e-05
-5.48682e-05
-2.08968e-05
-1.19106e-05
1.47788e-05
2.35175e-05
3.72811e-05
4.18365e-05
5.95435e-05
6.02871e-05
5.87819e-05
5.76857e-05
5.09599e-05
4.50852e-05
3.22852e-05
2.18695e-05
9.77328e-06
9.09344e-06
4.07782e-05
9.83157e-06
1.88964e-05
1.65501e-05
3.63685e-05
3.51595e-05
4.91116e-05
4.92259e-05
5.62371e-05
5.71458e-05
3.95869e-05
4.14069e-05
4.169e-05
4.35383e-05
4.24347e-05
4.58672e-05
4.58149e-05
5.38748e-05
5.14655e-05
5.81535e-05
3.3568e-05
-1.54747e-05
-1.68324e-05
-3.05277e-05
-8.36393e-06
-4.55638e-06
1.45917e-05
2.06585e-05
3.16241e-05
3.53767e-05
4.37976e-05
4.38949e-05
4.2602e-05
4.15073e-05
3.63622e-05
3.16347e-05
2.2142e-05
1.32283e-05
4.42233e-06
-2.43805e-06
1.15557e-05
6.41739e-06
2.27488e-05
2.05365e-05
3.41709e-05
3.02803e-05
3.89031e-05
3.74301e-05
4.2105e-05
4.21984e-05
3.41214e-05
3.52211e-05
3.5474e-05
3.64245e-05
3.51146e-05
3.6719e-05
3.64951e-05
3.97679e-05
3.90728e-05
3.78457e-05
2.53902e-05
-5.23298e-06
-6.21044e-06
-1.71479e-05
-1.9438e-06
4.36896e-07
1.4718e-05
1.92831e-05
2.78211e-05
3.05385e-05
3.50638e-05
3.4839e-05
3.39456e-05
3.29669e-05
2.91552e-05
2.55997e-05
1.88311e-05
1.17236e-05
5.84306e-06
-9.1683e-07
6.80746e-06
6.97689e-06
2.18231e-05
1.97563e-05
2.98188e-05
2.60933e-05
3.20274e-05
3.05798e-05
3.39899e-05
3.38453e-05
3.02553e-05
3.05459e-05
3.07474e-05
3.09611e-05
2.94888e-05
2.98325e-05
2.91994e-05
2.96648e-05
3.00584e-05
2.6178e-05
2.10646e-05
7.85632e-07
1.06873e-06
-6.94476e-06
3.90339e-06
5.45053e-06
1.58487e-05
1.92377e-05
2.56046e-05
2.73447e-05
3.01487e-05
2.95197e-05
2.90788e-05
2.81553e-05
2.52097e-05
2.26133e-05
1.84068e-05
1.24991e-05
9.31053e-06
3.23396e-06
8.50193e-06
8.23291e-06
2.00092e-05
1.76118e-05
2.55635e-05
2.28962e-05
2.72466e-05
2.64455e-05
2.91237e-05
2.88115e-05
2.77348e-05
2.72064e-05
2.75203e-05
2.72579e-05
2.55557e-05
2.5211e-05
2.42467e-05
2.2878e-05
2.39372e-05
1.92595e-05
1.82228e-05
4.72377e-06
6.75299e-06
9.90005e-07
9.01661e-06
1.00773e-05
1.72714e-05
1.98442e-05
2.44602e-05
2.52725e-05
2.7292e-05
2.61707e-05
2.61938e-05
2.51853e-05
2.28052e-05
2.12054e-05
1.83585e-05
1.35193e-05
1.28521e-05
6.6253e-06
1.1581e-05
9.01778e-06
1.84069e-05
1.58813e-05
2.20743e-05
2.06812e-05
2.39776e-05
2.39816e-05
2.60768e-05
2.56205e-05
2.59873e-05
2.49977e-05
2.55825e-05
2.47123e-05
2.31239e-05
2.24066e-05
2.1532e-05
1.86811e-05
2.02998e-05
1.52308e-05
1.69631e-05
7.57594e-06
1.11373e-05
6.40973e-06
1.29339e-05
1.36544e-05
1.85882e-05
2.06961e-05
2.3714e-05
2.40464e-05
2.56859e-05
2.36325e-05
2.44622e-05
2.33677e-05
2.10907e-05
2.0136e-05
1.83251e-05
1.39514e-05
1.51972e-05
8.86377e-06
1.398e-05
9.66669e-06
1.7566e-05
1.46413e-05
1.99074e-05
1.9502e-05
2.15968e-05
2.26078e-05
2.42782e-05
2.34731e-05
2.53575e-05
2.33729e-05
2.45191e-05
2.30611e-05
2.12423e-05
2.12587e-05
1.98687e-05
1.62317e-05
1.92496e-05
1.27245e-05
1.72018e-05
8.92797e-06
1.42942e-05
1.01885e-05
1.53475e-05
1.64822e-05
1.93827e-05
2.15419e-05
2.32072e-05
2.28782e-05
2.43536e-05
2.18375e-05
2.35265e-05
2.18112e-05
1.99123e-05
1.95136e-05
1.84016e-05
1.33821e-05
1.67231e-05
9.64488e-06
1.57961e-05
9.8426e-06
1.75832e-05
1.35194e-05
1.85189e-05
1.87837e-05
2.01232e-05
2.20019e-05
2.27508e-05
2.20934e-05
2.52465e-05
2.1481e-05
2.40911e-05
2.24896e-05
1.97621e-05
2.03842e-05
1.91919e-05
1.46757e-05
1.91731e-05
1.13479e-05
1.79595e-05
9.72191e-06
1.65638e-05
1.21729e-05
1.71585e-05
1.85364e-05
1.91129e-05
2.23196e-05
2.33085e-05
2.18299e-05
2.38648e-05
1.99625e-05
2.29894e-05
2.0794e-05
1.83056e-05
1.95058e-05
1.81951e-05
1.23465e-05
1.82126e-05
8.83816e-06
1.75629e-05
8.97732e-06
1.77312e-05
1.26212e-05
1.73316e-05
1.87806e-05
1.8673e-05
2.17814e-05
2.1649e-05
2.03578e-05
2.50884e-05
2.02226e-05
2.4177e-05
2.15145e-05
1.85514e-05
2.0412e-05
1.88146e-05
1.29417e-05
1.98373e-05
9.99978e-06
1.92118e-05
9.61851e-06
1.85489e-05
1.27533e-05
1.78829e-05
1.97567e-05
1.89125e-05
2.31185e-05
2.2704e-05
2.08915e-05
2.40709e-05
1.72675e-05
2.29563e-05
2.03821e-05
1.56972e-05
1.99661e-05
1.79256e-05
1.03426e-05
1.93958e-05
7.09824e-06
1.89722e-05
7.4211e-06
1.82885e-05
1.1124e-05
1.61229e-05
1.93847e-05
1.64098e-05
2.18545e-05
2.10102e-05
1.78057e-05
2.51532e-05
1.83462e-05
2.46814e-05
2.07507e-05
1.68886e-05
2.10922e-05
1.83926e-05
1.06947e-05
2.1368e-05
7.71518e-06
2.10969e-05
8.04805e-06
2.02287e-05
1.19525e-05
1.79765e-05
2.06227e-05
1.77107e-05
2.40069e-05
2.19812e-05
1.94773e-05
2.41564e-05
1.40269e-05
2.37936e-05
1.92364e-05
1.2353e-05
2.11391e-05
1.74373e-05
6.62551e-06
2.11074e-05
3.59183e-06
2.08152e-05
4.23971e-06
1.92918e-05
8.31658e-06
1.46172e-05
1.96852e-05
1.35664e-05
2.25461e-05
1.94879e-05
1.47201e-05
2.58205e-05
1.54956e-05
2.56576e-05
1.97801e-05
1.36876e-05
2.23957e-05
1.76895e-05
7.65583e-06
2.29517e-05
4.57572e-06
2.28192e-05
5.33136e-06
2.14784e-05
9.46325e-06
1.73876e-05
2.1635e-05
1.52233e-05
2.49637e-05
2.0811e-05
1.66269e-05
2.50891e-05
7.585e-06
2.63961e-05
1.82536e-05
5.38957e-06
2.43561e-05
1.6845e-05
-1.25135e-06
2.4674e-05
-3.72858e-06
2.43284e-05
-2.66715e-06
2.17189e-05
1.89436e-06
1.2026e-05
2.10875e-05
7.47154e-06
2.46147e-05
1.78273e-05
8.7633e-06
2.62149e-05
1.03384e-05
2.75049e-05
1.76165e-05
8.19894e-06
2.50093e-05
1.5932e-05
1.69232e-06
2.51567e-05
-1.26875e-06
2.48632e-05
-2.0053e-07
2.26546e-05
4.18506e-06
1.55159e-05
2.18278e-05
1.01641e-05
2.62351e-05
1.79926e-05
1.17833e-05
2.82834e-05
-6.76417e-06
3.40722e-05
1.44181e-05
-1.19749e-05
3.40254e-05
1.38328e-05
-1.99366e-05
3.23844e-05
-2.06818e-05
3.13144e-05
-1.89723e-05
2.7052e-05
-1.4078e-05
6.78651e-06
2.45748e-05
-6.66852e-06
3.08995e-05
1.29159e-05
-5.60494e-06
-0.0109869
-0.0105945
-0.0102888
-0.0100774
-0.00996108
-0.00994876
-0.0100698
-0.0103048
-0.0106477
-0.0110744
-0.0115626
-0.012061
-0.0125067
-0.0128216
-0.0129549
-0.0129172
-0.0127165
-0.0123684
-0.0119231
-0.0114435
0.0023262
0.00228029
0.00214921
0.00198782
0.00183382
0.001744
0.00167496
0.00158983
0.00146775
0.00131343
0.00111143
0.000888393
0.000699384
0.000605159
0.000667451
0.000935765
0.00131239
0.00170486
0.0020361
0.00225042
-0.00233644
-0.00210111
-0.00191572
-0.00178007
-0.00173074
-0.00178677
-0.00191447
-0.00206438
-0.00228241
-0.00253854
-0.00286998
-0.00322099
-0.00352359
-0.00369323
-0.00372969
-0.00365453
-0.00346614
-0.00318808
-0.00288643
-0.00259713
0.00291031
0.00297368
0.00299789
0.00301532
0.00302027
0.00302019
0.00295355
0.00287542
0.0027088
0.00251592
0.00218814
0.00181917
0.00151275
0.00138239
0.00150997
0.00176958
0.00210804
0.00241339
0.00264773
0.00281066
-0.00045859
-0.000310905
-0.000238006
-0.000191041
-0.000228558
-0.000244335
-0.000305706
-0.000352611
-0.000508089
-0.000704306
-0.001125
-0.00163086
-0.00205873
-0.00228685
-0.00231016
-0.0021276
-0.00177022
-0.0013623
-0.000981274
-0.000674101
0.00202444
0.00212606
0.00217664
0.0022224
0.00221867
0.00220855
0.0021257
0.00205412
0.00185855
0.00163446
0.00112053
0.000583587
0.000208288
0.000148389
0.000363945
0.000721979
0.00110022
0.00142777
0.00169154
0.00188963
6.0654e-05
0.000104665
0.000108771
0.000112965
9.06054e-05
0.000112616
8.22528e-05
7.50063e-05
-7.187e-05
-0.000282447
-0.000891031
-0.00153957
-0.00194216
-0.00199609
-0.00169889
-0.00124499
-0.000786638
-0.000429659
-0.0001772
-2.09264e-05
0.00125597
0.00132611
0.00135885
0.00139284
0.00136833
0.00135445
0.0012774
0.00121144
0.00102326
0.000771402
0.000115622
-0.000489581
-0.000756662
-0.000571893
-0.000172674
0.000240296
0.000601665
0.000855774
0.00104166
0.00116894
0.000173774
0.000183601
0.000171167
0.000172268
0.000164776
0.00018905
0.000169172
0.00016438
4.11042e-05
-0.000181159
-0.000863764
-0.00150397
-0.00171873
-0.0014562
-0.000968715
-0.000552349
-0.000224431
-3.10344e-05
9.07548e-05
0.000150618
0.000743463
0.00078362
0.000799921
0.000815488
0.000792689
0.000777404
0.000717497
0.000662399
0.000518169
0.00029033
-0.00033712
-0.000847123
-0.000856251
-0.000556925
-0.00013287
0.000166551
0.000398589
0.000530513
0.000630962
0.000695527
0.000179025
0.000182787
0.00017253
0.000178237
0.000172873
0.000191193
0.000176552
0.000180543
9.87248e-05
-4.70223e-05
-0.000623438
-0.00115688
-0.00109764
-0.000794616
-0.00040747
-0.0001719
6.53662e-06
8.88909e-05
0.000147372
0.000170262
0.000436527
0.000457483
0.00046352
0.000469666
0.000450516
0.000437508
0.000393632
0.000357596
0.00026587
0.000139355
-0.000326245
-0.000619872
-0.000506735
-0.00023963
3.32958e-05
0.000170648
0.000283871
0.000332828
0.000382691
0.000411444
0.000155865
0.000160501
0.000155582
0.000162903
0.000158195
0.000173651
0.000164413
0.000190833
0.000156146
0.000180896
-0.000199744
-0.000575265
-0.000489162
-0.000328005
-0.000117499
-2.51205e-05
6.68817e-05
9.95038e-05
0.000135269
0.000147629
0.000262263
0.000272913
0.000273753
0.000276109
0.000259875
0.000249766
0.000216741
0.000198041
0.000150916
0.000142318
-8.04715e-05
-0.000198061
-0.000125542
-1.0321e-05
0.000111803
0.000143401
0.000195164
0.000207829
0.000235752
0.000248344
0.000127524
0.000133297
0.000132141
0.000139195
0.0001353
0.000148784
0.000144395
0.000185349
0.000191668
0.000365578
0.000228874
-0.000146371
-0.000154564
-0.000139835
-4.82526e-05
-1.0388e-05
5.47072e-05
7.59291e-05
0.00010676
0.00011769
0.000166167
0.000171882
0.000170709
0.000171404
0.000157762
0.00014936
0.000122332
0.000109805
7.80678e-05
0.000145087
0.00025164
8.32964e-06
-2.29408e-05
-1.5076e-05
5.42514e-05
6.77614e-05
0.000114969
0.000125817
0.000149144
0.000156851
0.000102668
0.000108159
0.000108638
0.000114262
0.000110956
0.000120338
0.000116542
0.000141315
0.000130458
0.000185718
0.000108642
-6.10585e-05
-5.50109e-05
-7.62962e-05
-1.4843e-05
-4.36232e-06
4.2746e-05
5.73125e-05
8.34162e-05
9.29074e-05
0.000114308
0.000117281
0.000115617
0.000115552
0.000104558
9.73625e-05
7.62724e-05
6.32576e-05
4.14089e-05
4.32997e-05
7.53014e-05
4.57438e-06
2.91014e-05
2.15209e-05
6.15665e-05
5.82082e-05
8.67202e-05
8.86112e-05
0.000104393
0.000108088
8.38028e-05
8.79605e-05
8.87536e-05
9.25737e-05
8.95638e-05
9.50958e-05
9.2268e-05
0.000104266
9.67819e-05
0.000106189
6.34074e-05
-2.57679e-05
-1.7472e-05
-4.13626e-05
2.94408e-07
3.54549e-06
3.81858e-05
4.77843e-05
6.82678e-05
7.54148e-05
8.58906e-05
8.73039e-05
8.58329e-05
8.5389e-05
7.68864e-05
7.09909e-05
5.52828e-05
4.32355e-05
2.73669e-05
1.71083e-05
3.10768e-05
8.91482e-06
3.95659e-05
3.09393e-05
5.91657e-05
5.14832e-05
7.03311e-05
6.89221e-05
7.98935e-05
8.14757e-05
7.06264e-05
7.31126e-05
7.37297e-05
7.59016e-05
7.28209e-05
7.55286e-05
7.30748e-05
7.75055e-05
7.37401e-05
7.00465e-05
4.88338e-05
-5.59402e-06
5.00584e-07
-1.95289e-05
9.78777e-06
1.08989e-05
3.6677e-05
4.33154e-05
5.89601e-05
6.37792e-05
6.98133e-05
7.01872e-05
6.92161e-05
6.85681e-05
6.21274e-05
5.76338e-05
4.63695e-05
3.61415e-05
2.57613e-05
1.41799e-05
2.27221e-05
1.40115e-05
4.07096e-05
3.28659e-05
5.3789e-05
4.64153e-05
5.97411e-05
5.78596e-05
6.58687e-05
6.64296e-05
6.1999e-05
6.27777e-05
6.32993e-05
6.40943e-05
6.09363e-05
6.1713e-05
5.92173e-05
5.91802e-05
5.81686e-05
5.01601e-05
4.18026e-05
6.1805e-06
1.24205e-05
-2.8578e-06
1.84784e-05
1.86759e-05
3.74419e-05
4.21095e-05
5.36512e-05
5.65026e-05
6.06719e-05
5.99205e-05
5.96168e-05
5.8702e-05
5.35866e-05
5.03081e-05
4.31169e-05
3.41116e-05
2.87471e-05
1.76154e-05
2.47571e-05
1.81928e-05
3.95131e-05
3.20108e-05
4.84013e-05
4.28958e-05
5.26345e-05
5.15325e-05
5.75966e-05
5.74207e-05
5.66536e-05
5.57399e-05
5.65232e-05
5.63218e-05
5.29325e-05
5.2709e-05
5.01705e-05
4.7185e-05
4.82482e-05
3.8837e-05
3.79236e-05
1.37758e-05
2.15612e-05
1.00104e-05
2.60587e-05
2.59959e-05
3.90383e-05
4.25709e-05
5.08423e-05
5.19677e-05
5.54032e-05
5.34076e-05
5.39224e-05
5.25367e-05
4.82644e-05
4.63713e-05
4.14316e-05
3.35296e-05
3.28066e-05
2.11324e-05
2.93035e-05
2.07497e-05
3.8248e-05
3.11423e-05
4.4037e-05
4.07911e-05
4.79351e-05
4.80728e-05
5.2558e-05
5.18015e-05
5.32441e-05
5.10949e-05
5.25337e-05
5.11334e-05
4.79244e-05
4.72917e-05
4.51562e-05
3.97414e-05
4.27109e-05
3.23521e-05
3.67223e-05
1.90318e-05
2.86294e-05
1.88245e-05
3.18827e-05
3.18187e-05
4.06573e-05
4.37878e-05
4.914e-05
4.92599e-05
5.25246e-05
4.85859e-05
5.06012e-05
4.8691e-05
4.45309e-05
4.3728e-05
4.04085e-05
3.27226e-05
3.58202e-05
2.34295e-05
3.31931e-05
2.24632e-05
3.79328e-05
3.04865e-05
4.14532e-05
4.00897e-05
4.45548e-05
4.64272e-05
4.96189e-05
4.80545e-05
5.1919e-05
4.76677e-05
5.04117e-05
4.77733e-05
4.41637e-05
4.48626e-05
4.21384e-05
3.51561e-05
4.13214e-05
2.82046e-05
3.78221e-05
2.15434e-05
3.387e-05
2.48319e-05
3.55084e-05
3.65195e-05
4.15463e-05
4.52289e-05
4.80388e-05
4.69382e-05
5.04456e-05
4.50145e-05
4.89051e-05
4.56738e-05
4.18391e-05
4.22662e-05
3.99262e-05
3.07601e-05
3.81288e-05
2.37111e-05
3.64521e-05
2.29524e-05
3.87667e-05
2.95113e-05
3.98452e-05
3.99355e-05
4.23143e-05
4.59968e-05
4.72278e-05
4.55085e-05
5.16567e-05
4.39705e-05
4.96214e-05
4.62624e-05
4.11006e-05
4.33103e-05
4.07735e-05
3.18818e-05
4.16526e-05
2.54764e-05
3.97875e-05
2.2655e-05
3.78063e-05
2.78229e-05
3.81528e-05
4.00548e-05
4.07939e-05
4.67131e-05
4.78791e-05
4.4806e-05
4.98071e-05
4.13117e-05
4.81454e-05
4.36415e-05
3.85586e-05
4.21184e-05
3.92394e-05
2.80948e-05
4.07114e-05
2.154e-05
3.98047e-05
2.14094e-05
3.97731e-05
2.82919e-05
3.83195e-05
4.06595e-05
3.98462e-05
4.61839e-05
4.54176e-05
4.23662e-05
5.15879e-05
4.10063e-05
4.98931e-05
4.43435e-05
3.82423e-05
4.34707e-05
3.98931e-05
2.81276e-05
4.33055e-05
2.2373e-05
4.25785e-05
2.18409e-05
4.13484e-05
2.82672e-05
3.90672e-05
4.23818e-05
3.98061e-05
4.83214e-05
4.66825e-05
4.25981e-05
5.03259e-05
3.62039e-05
4.84444e-05
4.24915e-05
3.35966e-05
4.31097e-05
3.8473e-05
2.37117e-05
4.32067e-05
1.75595e-05
4.28669e-05
1.81868e-05
4.13952e-05
2.55381e-05
3.64923e-05
4.2123e-05
3.58041e-05
4.68773e-05
4.40749e-05
3.77619e-05
5.20023e-05
3.67582e-05
5.11426e-05
4.26676e-05
3.42847e-05
4.50346e-05
3.88738e-05
2.30854e-05
4.64935e-05
1.72733e-05
4.64544e-05
1.81393e-05
4.45554e-05
2.59876e-05
3.88443e-05
4.41579e-05
3.68732e-05
5.02174e-05
4.50804e-05
3.92784e-05
5.08569e-05
2.97506e-05
5.03992e-05
4.01957e-05
2.6955e-05
4.5668e-05
3.72713e-05
1.62202e-05
4.68471e-05
1.0303e-05
4.68159e-05
1.17533e-05
4.37506e-05
1.99933e-05
3.39317e-05
4.3122e-05
3.02349e-05
4.86233e-05
4.11762e-05
3.18145e-05
5.34649e-05
3.03225e-05
5.36187e-05
4.04748e-05
2.72401e-05
4.81963e-05
3.72461e-05
1.58838e-05
5.02568e-05
9.89245e-06
5.04687e-05
1.16646e-05
4.73866e-05
2.01702e-05
3.73178e-05
4.61822e-05
3.1213e-05
5.2532e-05
4.24417e-05
3.31483e-05
5.28022e-05
1.78507e-05
5.55119e-05
3.77872e-05
1.4123e-05
5.20021e-05
3.56047e-05
1.70951e-06
5.36732e-05
-3.47087e-06
5.35353e-05
-1.14804e-06
4.83605e-05
8.06755e-06
2.94484e-05
4.57284e-05
1.90411e-05
5.27091e-05
3.75493e-05
2.09081e-05
5.48609e-05
1.9503e-05
5.81965e-05
3.62218e-05
1.55914e-05
5.43574e-05
3.37693e-05
3.09855e-06
5.56383e-05
-2.68366e-06
5.55077e-05
-1.99865e-07
5.05519e-05
8.93449e-06
3.35721e-05
4.72918e-05
2.07097e-05
5.58989e-05
3.69275e-05
2.30824e-05
5.81348e-05
-5.05498e-06
6.85123e-05
3.1124e-05
-1.32665e-05
6.84311e-05
3.03294e-05
-2.79146e-05
6.6954e-05
-3.07356e-05
6.56391e-05
-2.72748e-05
5.74366e-05
-1.74166e-05
2.13855e-05
5.15623e-05
-3.38951e-06
6.32261e-05
2.89531e-05
-1.63819e-06
-0.0135298
-0.0129808
-0.0125316
-0.012204
-0.0120122
-0.0119859
-0.0121412
-0.0124567
-0.0129213
-0.0134994
-0.0141546
-0.0148184
-0.0154096
-0.0158338
-0.0160271
-0.0159974
-0.0157564
-0.0153253
-0.0147627
-0.0141415
0.00193437
0.00199126
0.00192506
0.00179069
0.00163343
0.00151835
0.0013822
0.00120738
0.000972643
0.00068775
0.000341651
-2.52782e-05
-0.00033702
-0.000510496
-0.000465354
-0.000152145
0.000325968
0.000859904
0.00135104
0.00172256
-0.00274641
-0.00243865
-0.00222238
-0.00208738
-0.00207334
-0.00218084
-0.0023777
-0.00261758
-0.00295222
-0.0033497
-0.00384937
-0.00437149
-0.00481346
-0.00505164
-0.00507942
-0.00489741
-0.00453536
-0.00405836
-0.00356794
-0.00312198
0.00338187
0.00345932
0.00347788
0.00348062
0.00345802
0.00341395
0.00328829
0.00313284
0.00285455
0.00251838
0.00200374
0.00145081
0.00102381
0.000887828
0.00113748
0.00158355
0.0021314
0.00262096
0.00299162
0.0032399
-0.000285179
-0.000126164
-5.51036e-05
-1.88168e-05
-7.96756e-05
-0.000120809
-0.000230611
-0.000344165
-0.000611094
-0.00096184
-0.00160209
-0.0023155
-0.00284474
-0.00304784
-0.00291548
-0.00251675
-0.00195099
-0.00138187
-0.000895904
-0.000529293
0.00247797
0.00259718
0.00265323
0.00269987
0.00267698
0.00264354
0.00251212
0.00237513
0.00206422
0.00167624
0.000918573
0.000183566
-0.000249143
-0.000194007
0.000213624
0.000771169
0.00130835
0.00174359
0.0020758
0.00231681
0.000290886
0.00034866
0.000355663
0.000357964
0.000326111
0.000334319
0.000266356
0.000205516
-5.07319e-05
-0.000428875
-0.00130561
-0.00214892
-0.0025755
-0.00248178
-0.00197891
-0.00134313
-0.000752251
-0.000310957
-3.78581e-06
0.000187815
0.00158488
0.00167349
0.00171334
0.00174988
0.00171287
0.00168295
0.00156689
0.00144679
0.00115077
0.000728909
-0.000200173
-0.000970989
-0.00120055
-0.000857823
-0.000266441
0.000288731
0.000752439
0.00107367
0.00130923
0.00147253
0.000370701
0.000392115
0.000381877
0.000385357
0.00036984
0.000385566
0.000336367
0.000289363
7.14578e-05
-0.000312699
-0.00126944
-0.00205864
-0.00219998
-0.00176822
-0.00110771
-0.000574986
-0.000163399
8.29845e-05
0.000244243
0.00033063
0.000967424
0.00102024
0.00104049
0.00105745
0.00102545
0.000999549
0.000910656
0.000815481
0.000585668
0.000209204
-0.00067462
-0.00129122
-0.00120099
-0.0007477
-0.000183048
0.000203778
0.00050263
0.000677398
0.000812945
0.000902095
0.000329513
0.000341337
0.00033227
0.000340404
0.000328765
0.000342064
0.0003066
0.000283515
0.000133293
-0.000135302
-0.000946338
-0.00156716
-0.00139599
-0.000962993
-0.000461253
-0.000160889
7.0277e-05
0.000184072
0.000269294
0.000309259
0.000586653
0.000615422
0.000623112
0.000630379
0.000604114
0.00058463
0.000521071
0.000460998
0.000313399
8.70005e-05
-0.000576048
-0.000910429
-0.000694938
-0.000325339
3.16325e-05
0.000211623
0.000364266
0.000435797
0.000507741
0.000550839
0.000266205
0.000276532
0.000272396
0.000281866
0.000272398
0.000285919
0.00026368
0.000279676
0.000206662
0.000171448
-0.000374019
-0.000792595
-0.000621606
-0.00039316
-0.000119438
5.54125e-07
0.000124089
0.000173172
0.000226897
0.000249916
0.000364334
0.000379955
0.000381381
0.000384778
0.000362994
0.000349325
0.000303457
0.000274249
0.00019854
0.000146877
-0.000189879
-0.000322427
-0.000185647
-2.69224e-05
0.000136442
0.000181887
0.000256549
0.000279917
0.000322382
0.000343398
0.000208014
0.000218005
0.000217464
0.000226386
0.000218863
0.0002323
0.000220327
0.000262058
0.000254079
0.000423664
0.00020503
-0.000227919
-0.000194071
-0.000162122
-3.66727e-05
1.11436e-05
9.83552e-05
0.000129298
0.000173778
0.000192009
0.000238198
0.000247291
0.000246286
0.000247877
0.000229775
0.00021929
0.00018312
0.000166709
0.000120672
0.000188051
0.000272719
-3.08653e-05
-4.12258e-05
-2.51322e-05
7.1141e-05
9.1762e-05
0.000157836
0.000175718
0.000210416
0.000223749
0.000162744
0.000171329
0.000172243
0.000179323
0.000173082
0.000182717
0.000173587
0.000199918
0.000179854
0.000239169
0.000132107
-8.80819e-05
-6.91178e-05
-9.18559e-05
-6.22484e-06
9.34833e-06
7.47346e-05
9.62128e-05
0.000133366
0.000148122
0.000168004
0.000173269
0.000171593
0.000172193
0.000157573
0.00014886
0.000120845
0.000104902
7.37277e-05
7.41047e-05
9.73967e-05
-5.63518e-06
3.07121e-05
2.03878e-05
7.89578e-05
7.74275e-05
0.000120079
0.000126055
0.000150519
0.000157938
0.000130643
0.000136904
0.000137928
0.000142727
0.000137224
0.000142755
0.000135895
0.00014801
0.000134464
0.000142455
8.56133e-05
-3.37908e-05
-1.73125e-05
-4.70603e-05
1.15585e-05
1.66537e-05
6.5021e-05
7.891e-05
0.000107827
0.000118537
0.000128447
0.000131306
0.000129743
0.000129699
0.000118244
0.000111105
9.01695e-05
7.52108e-05
5.28927e-05
3.85519e-05
4.83447e-05
9.58419e-06
5.01885e-05
3.66979e-05
7.82297e-05
6.99292e-05
9.90511e-05
9.97683e-05
0.000117197
0.000121136
0.000109143
0.000112863
0.000113559
0.000116256
0.000110968
0.00011339
0.000107757
0.000111161
0.00010351
9.6047e-05
6.81767e-05
-4.55239e-06
8.11758e-06
-1.77929e-05
2.39385e-05
2.53232e-05
6.12542e-05
7.04829e-05
9.24056e-05
9.9472e-05
0.000105599
0.0001067
0.000105646
0.000105127
9.62504e-05
9.07354e-05
7.55915e-05
6.25331e-05
4.80612e-05
3.17213e-05
3.88049e-05
2.0336e-05
5.54232e-05
4.28256e-05
7.36756e-05
6.50042e-05
8.59056e-05
8.52013e-05
9.80151e-05
9.9982e-05
9.54108e-05
9.66385e-05
9.72124e-05
9.81253e-05
9.29601e-05
9.32788e-05
8.82348e-05
8.64549e-05
8.32535e-05
7.08316e-05
6.00121e-05
1.2578e-05
2.46486e-05
4.38202e-06
3.50851e-05
3.49584e-05
6.11484e-05
6.74524e-05
8.35864e-05
8.77055e-05
9.24087e-05
9.16848e-05
9.14201e-05
9.03485e-05
8.31277e-05
7.90501e-05
6.90781e-05
5.72859e-05
4.98368e-05
3.392e-05
4.14962e-05
2.79723e-05
5.63848e-05
4.46315e-05
6.87492e-05
6.20686e-05
7.74026e-05
7.71482e-05
8.67645e-05
8.72783e-05
8.70255e-05
8.58053e-05
8.67881e-05
8.6337e-05
8.10521e-05
8.03774e-05
7.57859e-05
7.05506e-05
7.08856e-05
5.68541e-05
5.61653e-05
2.36803e-05
3.70507e-05
2.13129e-05
4.46438e-05
4.41784e-05
6.25105e-05
6.72623e-05
7.88105e-05
8.04479e-05
8.47731e-05
8.20858e-05
8.29198e-05
8.10409e-05
7.48509e-05
7.24687e-05
6.54584e-05
5.47259e-05
5.37014e-05
3.7085e-05
4.73109e-05
3.27346e-05
5.66e-05
4.56665e-05
6.47902e-05
6.0808e-05
7.19844e-05
7.30157e-05
8.00214e-05
7.93905e-05
8.18563e-05
7.86477e-05
8.06595e-05
7.8586e-05
7.35503e-05
7.26615e-05
6.88708e-05
6.07075e-05
6.4367e-05
4.90242e-05
5.5715e-05
3.12673e-05
4.65741e-05
3.29351e-05
5.19505e-05
5.16778e-05
6.41145e-05
6.84659e-05
7.59855e-05
7.60536e-05
8.06034e-05
7.50881e-05
7.79855e-05
7.51833e-05
6.91032e-05
6.82412e-05
6.32933e-05
5.24935e-05
5.69799e-05
3.91428e-05
5.25553e-05
3.58242e-05
5.75851e-05
4.63643e-05
6.26568e-05
6.10929e-05
6.81661e-05
7.13084e-05
7.61125e-05
7.41519e-05
7.9666e-05
7.33832e-05
7.73925e-05
7.35798e-05
6.8021e-05
6.90372e-05
6.47919e-05
5.44859e-05
6.30337e-05
4.39857e-05
5.80011e-05
3.50534e-05
5.3721e-05
4.07482e-05
5.65586e-05
5.78188e-05
6.49149e-05
7.02298e-05
7.42043e-05
7.25048e-05
7.78429e-05
6.97974e-05
7.54863e-05
7.08054e-05
6.48847e-05
6.59554e-05
6.21637e-05
4.9194e-05
5.98741e-05
3.88768e-05
5.71922e-05
3.69062e-05
5.96761e-05
4.61403e-05
6.14066e-05
6.18852e-05
6.5507e-05
7.11629e-05
7.30554e-05
7.04623e-05
7.90796e-05
6.80014e-05
7.61351e-05
7.10514e-05
6.34714e-05
6.69332e-05
6.28622e-05
4.9777e-05
6.39721e-05
4.0322e-05
6.134e-05
3.65633e-05
5.92014e-05
4.45561e-05
5.98108e-05
6.25478e-05
6.37218e-05
7.22136e-05
7.36204e-05
6.92595e-05
7.70038e-05
6.44018e-05
7.44776e-05
6.78156e-05
6.00597e-05
6.56182e-05
6.10237e-05
4.50213e-05
6.33705e-05
3.55646e-05
6.20176e-05
3.50597e-05
6.18367e-05
4.49983e-05
5.99636e-05
6.35071e-05
6.23185e-05
7.18091e-05
7.06711e-05
6.60515e-05
7.89983e-05
6.33292e-05
7.64676e-05
6.82672e-05
5.90051e-05
6.72e-05
6.15657e-05
4.42654e-05
6.66345e-05
3.57668e-05
6.5665e-05
3.51645e-05
6.41226e-05
4.48389e-05
6.08279e-05
6.58342e-05
6.19123e-05
7.44524e-05
7.18546e-05
6.57322e-05
7.7657e-05
5.72178e-05
7.50315e-05
6.58929e-05
5.31026e-05
6.70223e-05
5.98239e-05
3.85409e-05
6.70557e-05
2.96736e-05
6.66466e-05
3.05556e-05
6.4618e-05
4.13715e-05
5.78234e-05
6.5804e-05
5.69179e-05
7.3106e-05
6.86532e-05
5.97132e-05
7.96352e-05
5.68481e-05
7.82903e-05
6.57446e-05
5.28687e-05
6.95067e-05
6.00522e-05
3.67281e-05
7.1267e-05
2.82715e-05
7.13071e-05
2.96608e-05
6.86378e-05
4.12305e-05
6.02253e-05
6.84107e-05
5.73795e-05
7.71508e-05
6.94217e-05
6.05404e-05
7.84893e-05
4.80204e-05
7.78605e-05
6.26233e-05
4.36703e-05
7.07083e-05
5.80341e-05
2.78996e-05
7.23322e-05
1.93413e-05
7.24343e-05
2.15323e-05
6.8206e-05
3.36637e-05
5.44583e-05
6.74882e-05
4.91201e-05
7.57261e-05
6.46107e-05
5.1322e-05
8.1593e-05
4.72596e-05
8.19813e-05
6.24801e-05
4.24921e-05
7.42151e-05
5.76777e-05
2.58539e-05
7.69023e-05
1.72613e-05
7.73204e-05
1.9987e-05
7.28079e-05
3.25812e-05
5.77542e-05
7.12371e-05
4.89918e-05
8.05544e-05
6.54718e-05
5.15286e-05
8.10257e-05
3.20708e-05
8.47383e-05
5.90099e-05
2.65035e-05
7.93005e-05
5.55076e-05
8.52249e-06
8.15233e-05
8.50895e-07
8.15248e-05
4.30453e-06
7.4366e-05
1.77658e-05
4.84995e-05
7.09327e-05
3.42305e-05
8.12036e-05
5.93397e-05
3.67081e-05
8.36226e-05
3.21641e-05
8.85887e-05
5.67054e-05
2.61655e-05
8.30306e-05
5.30234e-05
7.88485e-06
8.47144e-05
-3.53237e-07
8.46962e-05
3.40845e-06
7.74763e-05
1.69041e-05
5.24277e-05
7.31004e-05
3.44456e-05
8.54488e-05
5.79362e-05
3.74702e-05
8.72221e-05
4.3e-06
0.000100643
5.06139e-05
-6.50039e-06
9.95079e-05
4.89372e-05
-2.72359e-05
9.79386e-05
-3.21997e-05
9.65432e-05
-2.73092e-05
8.53739e-05
-1.30457e-05
3.8475e-05
7.79165e-05
7.14506e-06
9.3848e-05
4.8358e-05
9.55543e-06
-0.0149497
-0.0143247
-0.0138109
-0.0134357
-0.0132219
-0.0132058
-0.013395
-0.0137673
-0.0143088
-0.0149765
-0.0157259
-0.0164776
-0.0171395
-0.0176077
-0.0178141
-0.0177671
-0.0174815
-0.0169859
-0.0163464
-0.0156431
0.00141564
0.00152449
0.00149528
0.00138194
0.00123487
0.00111137
0.000935031
0.000702873
0.000392772
2.06972e-05
-0.000418872
-0.000873672
-0.00125306
-0.00146171
-0.0014089
-0.00105284
-0.00050697
0.000109736
0.000686385
0.00113708
-0.00310466
-0.00274854
-0.00250904
-0.00237059
-0.00238096
-0.00252208
-0.00276672
-0.00307149