/*--------------------------------*- C++ -*----------------------------------*\
| =========                 |                                                 |
| \\      /  F ield         | OpenFOAM: The Open Source CFD Toolbox           |
|  \\    /   O peration     | Version:  2.4.0                                 |
|   \\  /    A nd           | Web:      www.OpenFOAM.org                      |
|    \\/     M anipulation  |                                                 |
\*---------------------------------------------------------------------------*/
FoamFile
{
    version     2.0;
    format      ascii;
    class       volScalarField;
    location    "490";
    object      p;
}
// * * * * * * * * * * * * * * * * * * * * * * * * * * * * * * * * * * * * * //

dimensions      [0 2 -2 0 0 0 0];

internalField   nonuniform List<scalar> 
283312
(
-0.00626899
-0.00632727
-0.00656681
-0.00690763
-0.00726174
-0.00755998
-0.00779417
-0.00795888
-0.00808623
-0.00819954
-0.00831888
-0.00843075
-0.00850313
-0.00848025
-0.00832895
-0.00805638
-0.00767334
-0.00721682
-0.00676819
-0.00642579
0.00215277
0.00164889
0.00122065
0.000949354
0.000848141
0.000912029
0.00105368
0.00119368
0.00130382
0.00139152
0.00145908
0.00153822
0.00166696
0.00186793
0.00215436
0.00252529
0.0028424
0.00299562
0.00292094
0.0026168
-0.00230071
-0.00215149
-0.00192968
-0.00169066
-0.00149936
-0.00140335
-0.00138609
-0.00139375
-0.00144436
-0.00148778
-0.00151974
-0.00149937
-0.00142748
-0.00132587
-0.00127677
-0.00137939
-0.00161543
-0.00190609
-0.00216641
-0.00230983
0.00148372
0.00165518
0.00179821
0.00191259
0.00199539
0.00206378
0.0020703
0.00207619
0.00204228
0.00205213
0.0020685
0.00211591
0.00214662
0.00210829
0.00198564
0.001749
0.00150171
0.00131905
0.00126376
0.0013363
-0.00074385
-0.000546245
-0.000430068
-0.000352355
-0.00034959
-0.000337462
-0.000349611
-0.000336651
-0.000367399
-0.000345524
-0.000355952
-0.000411903
-0.000585879
-0.000896285
-0.0013146
-0.00165066
-0.00174237
-0.00160438
-0.0013226
-0.00100879
0.00120473
0.00131389
0.00137148
0.00141688
0.00143048
0.00143766
0.00140302
0.00138968
0.00132489
0.0013337
0.0012763
0.00115155
0.000878906
0.00052557
0.000264519
0.000194255
0.000321138
0.000562015
0.000825797
0.00104844
-0.000149957
-0.000110657
-0.000103916
-9.8293e-05
-0.000109695
-8.47282e-05
-8.52478e-05
-5.67914e-05
-8.857e-05
-6.47926e-05
-0.000182243
-0.000455129
-0.000865835
-0.001269
-0.00140002
-0.00124827
-0.00093655
-0.000624353
-0.000382219
-0.000229274
0.000763897
0.00081277
0.00083615
0.000860931
0.000849138
0.000845454
0.000807822
0.000787341
0.000718289
0.000707372
0.00054685
0.00023155
-0.000173146
-0.000362256
-0.000309348
-7.78207e-05
0.000206581
0.000433267
0.000595435
0.00069891
1.32852e-07
1.74752e-06
-9.23255e-06
-1.09177e-05
-1.23627e-05
9.56275e-06
1.14032e-05
3.132e-05
3.48577e-06
6.6081e-06
-0.000188855
-0.000597056
-0.00100239
-0.00108545
-0.000870477
-0.000579404
-0.000314661
-0.000150297
-5.41761e-05
-1.20433e-05
0.000441826
0.000466313
0.000477034
0.000487464
0.000474598
0.000466181
0.000435734
0.000413389
0.00036001
0.000342627
0.00016146
-0.00021027
-0.000462572
-0.00044838
-0.000215687
9.77473e-06
0.000194571
0.000299985
0.000370809
0.000412441
4.42173e-05
4.21351e-05
3.3217e-05
3.50463e-05
3.42897e-05
4.93427e-05
4.96952e-05
6.59944e-05
4.88269e-05
7.34325e-05
-0.000104134
-0.000534867
-0.000716788
-0.000634243
-0.000390512
-0.000205256
-6.71562e-05
-4.13248e-06
3.27967e-05
4.34282e-05
0.000251135
0.000262851
0.00026663
0.000269752
0.000258569
0.000249797
0.000226195
0.000208587
0.000173188
0.000192133
5.50942e-05
-0.000227684
-0.000332287
-0.000226144
-4.54097e-05
6.89576e-05
0.000154701
0.000191174
0.000221365
0.000237292
5.51921e-05
5.51277e-05
5.06164e-05
5.40481e-05
5.28506e-05
6.41121e-05
6.37472e-05
8.72979e-05
8.39184e-05
0.000190254
7.55245e-05
-0.000272206
-0.000356276
-0.000290592
-0.000144996
-6.32373e-05
4.7627e-06
2.88188e-05
4.88075e-05
5.33844e-05
0.000145627
0.000150785
0.000150971
0.000151255
0.00014147
0.000133677
0.000114521
0.000102348
8.16935e-05
0.000139034
9.80937e-05
-5.16097e-05
-0.000108743
-5.34773e-05
3.36661e-05
7.06362e-05
0.000108267
0.000118075
0.000133031
0.000138821
5.29488e-05
5.46497e-05
5.31583e-05
5.67029e-05
5.54922e-05
6.4471e-05
6.47596e-05
9.3287e-05
0.000105252
0.000280138
0.000267015
-5.06687e-05
-0.000137035
-0.00013959
-7.50711e-05
-3.47263e-05
1.12222e-05
2.69758e-05
4.41334e-05
4.9016e-05
8.91011e-05
9.12948e-05
9.00767e-05
8.92853e-05
8.09387e-05
7.40581e-05
5.76848e-05
4.70611e-05
2.89949e-05
8.60634e-05
0.000195892
3.70393e-05
-1.94341e-05
-1.94266e-05
2.15235e-05
3.49164e-05
6.34388e-05
7.02359e-05
8.19659e-05
8.50262e-05
4.63773e-05
4.85675e-05
4.84639e-05
5.12941e-05
5.01876e-05
5.61765e-05
5.59744e-05
7.23473e-05
6.84897e-05
0.00010698
6.64683e-05
-3.0782e-05
-4.0143e-05
-5.48735e-05
-2.09068e-05
-1.19197e-05
1.47687e-05
2.35078e-05
3.72717e-05
4.18283e-05
5.95345e-05
6.02782e-05
5.87727e-05
5.76768e-05
5.09511e-05
4.50766e-05
3.22778e-05
2.18617e-05
9.76846e-06
9.0877e-06
4.07735e-05
9.82529e-06
1.88862e-05
1.65394e-05
3.63597e-05
3.51512e-05
4.91031e-05
4.92175e-05
5.62284e-05
5.71371e-05
3.95814e-05
4.14022e-05
4.16855e-05
4.35344e-05
4.24306e-05
4.58633e-05
4.58105e-05
5.38702e-05
5.14613e-05
5.81496e-05
3.35674e-05
-1.54763e-05
-1.68329e-05
-3.05308e-05
-8.36931e-06
-4.56249e-06
1.45847e-05
2.06517e-05
3.16174e-05
3.53708e-05
4.37921e-05
4.38897e-05
4.25966e-05
4.15023e-05
3.63572e-05
3.16301e-05
2.2138e-05
1.32245e-05
4.41999e-06
-2.44047e-06
1.15528e-05
6.41358e-06
2.27429e-05
2.05305e-05
3.41652e-05
3.0275e-05
3.88976e-05
3.74249e-05
4.20995e-05
4.21931e-05
3.41174e-05
3.52176e-05
3.54707e-05
3.64217e-05
3.51117e-05
3.67163e-05
3.64923e-05
3.9765e-05
3.907e-05
3.78428e-05
2.53894e-05
-5.23366e-06
-6.21109e-06
-1.71501e-05
-1.94747e-06
4.32621e-07
1.4713e-05
1.92784e-05
2.78163e-05
3.05342e-05
3.50601e-05
3.48357e-05
3.39423e-05
3.29639e-05
2.91523e-05
2.55972e-05
1.88288e-05
1.17219e-05
5.84188e-06
-9.17636e-07
6.80575e-06
6.97447e-06
2.18194e-05
1.97527e-05
2.9815e-05
2.60899e-05
3.20236e-05
3.05763e-05
3.39861e-05
3.38417e-05
3.02522e-05
3.05433e-05
3.07449e-05
3.09591e-05
2.94868e-05
2.98309e-05
2.91976e-05
2.96632e-05
3.00567e-05
2.61762e-05
2.10637e-05
7.85244e-07
1.0679e-06
-6.9464e-06
3.90062e-06
5.44744e-06
1.5845e-05
1.92342e-05
2.56011e-05
2.73416e-05
3.01461e-05
2.95174e-05
2.90766e-05
2.81535e-05
2.52078e-05
2.2612e-05
1.84055e-05
1.24983e-05
9.30977e-06
3.23374e-06
8.50089e-06
8.2315e-06
2.00068e-05
1.76095e-05
2.55609e-05
2.28938e-05
2.72438e-05
2.64429e-05
2.91209e-05
2.88089e-05
2.77326e-05
2.72045e-05
2.75185e-05
2.72565e-05
2.55543e-05
2.52101e-05
2.42456e-05
2.28773e-05
2.39362e-05
1.92588e-05
1.8222e-05
4.72355e-06
6.75209e-06
9.8876e-07
9.01445e-06
1.0075e-05
1.72686e-05
1.98416e-05
2.44575e-05
2.52701e-05
2.729e-05
2.6169e-05
2.61922e-05
2.51841e-05
2.2804e-05
2.12046e-05
1.83577e-05
1.3519e-05
1.28515e-05
6.62533e-06
1.15803e-05
9.01702e-06
1.84052e-05
1.58797e-05
2.20723e-05
2.06794e-05
2.39754e-05
2.39795e-05
2.60746e-05
2.56185e-05
2.59855e-05
2.49962e-05
2.55812e-05
2.47113e-05
2.3123e-05
2.24061e-05
2.15314e-05
1.8681e-05
2.02993e-05
1.52307e-05
1.69625e-05
7.57585e-06
1.11364e-05
6.40877e-06
1.29322e-05
1.36527e-05
1.8586e-05
2.06941e-05
2.37118e-05
2.40445e-05
2.56844e-05
2.36312e-05
2.44611e-05
2.33668e-05
2.10899e-05
2.01357e-05
1.83245e-05
1.39515e-05
1.51968e-05
8.864e-06
1.39794e-05
9.66634e-06
1.75648e-05
1.46403e-05
1.99058e-05
1.95006e-05
2.1595e-05
2.26061e-05
2.42764e-05
2.34714e-05
2.53561e-05
2.33716e-05
2.45181e-05
2.30604e-05
2.12417e-05
2.12586e-05
1.98683e-05
1.62319e-05
1.92492e-05
1.27247e-05
1.72014e-05
8.92799e-06
1.42934e-05
1.01878e-05
1.53461e-05
1.64808e-05
1.93809e-05
2.15403e-05
2.32055e-05
2.28766e-05
2.43524e-05
2.18364e-05
2.35256e-05
2.18105e-05
1.99117e-05
1.95135e-05
1.84012e-05
1.33824e-05
1.67227e-05
9.64524e-06
1.57955e-05
9.8425e-06
1.75823e-05
1.35187e-05
1.85176e-05
1.87827e-05
2.01216e-05
2.20006e-05
2.27493e-05
2.2092e-05
2.52454e-05
2.14799e-05
2.40903e-05
2.24891e-05
1.97617e-05
2.03842e-05
1.91916e-05
1.46762e-05
1.91728e-05
1.13484e-05
1.79591e-05
9.72203e-06
1.65631e-05
1.21723e-05
1.71572e-05
1.85354e-05
1.91113e-05
2.23183e-05
2.3307e-05
2.18285e-05
2.38638e-05
1.99615e-05
2.29887e-05
2.07935e-05
1.83052e-05
1.95058e-05
1.81948e-05
1.2347e-05
1.82122e-05
8.83866e-06
1.75624e-05
8.97738e-06
1.77304e-05
1.26207e-05
1.73304e-05
1.87798e-05
1.86716e-05
2.17804e-05
2.16478e-05
2.03566e-05
2.50875e-05
2.02216e-05
2.41764e-05
2.1514e-05
1.85511e-05
2.04121e-05
1.88144e-05
1.29424e-05
1.9837e-05
1.00004e-05
1.92114e-05
9.61873e-06
1.85482e-05
1.27529e-05
1.78817e-05
1.97559e-05
1.8911e-05
2.31174e-05
2.27027e-05
2.08902e-05
2.40703e-05
1.72666e-05
2.29558e-05
2.03816e-05
1.5697e-05
1.9966e-05
1.79252e-05
1.03432e-05
1.93952e-05
7.09889e-06
1.89716e-05
7.42128e-06
1.82877e-05
1.11236e-05
1.61218e-05
1.93842e-05
1.64084e-05
2.18537e-05
2.10093e-05
1.78045e-05
2.51525e-05
1.83452e-05
2.46809e-05
2.07503e-05
1.68885e-05
2.10923e-05
1.83925e-05
1.06956e-05
2.13676e-05
7.71602e-06
2.10963e-05
8.04836e-06
2.02279e-05
1.19521e-05
1.79754e-05
2.0622e-05
1.77092e-05
2.4006e-05
2.19801e-05
1.94759e-05
2.4156e-05
1.4026e-05
2.37933e-05
1.92359e-05
1.2353e-05
2.11389e-05
1.74368e-05
6.62642e-06
2.11066e-05
3.59269e-06
2.08144e-05
4.24001e-06
1.9291e-05
8.31622e-06
1.46163e-05
1.96849e-05
1.35651e-05
2.25457e-05
1.94871e-05
1.47189e-05
2.58199e-05
1.54946e-05
2.56573e-05
1.97797e-05
1.36876e-05
2.23957e-05
1.76893e-05
7.65688e-06
2.2951e-05
4.57675e-06
2.28185e-05
5.33178e-06
2.14777e-05
9.46292e-06
1.73866e-05
2.16346e-05
1.52218e-05
2.4963e-05
2.08101e-05
1.66255e-05
2.5089e-05
7.58402e-06
2.63959e-05
1.82532e-05
5.38977e-06
2.43557e-05
1.68444e-05
-1.24997e-06
2.46727e-05
-3.72734e-06
2.43273e-05
-2.66666e-06
2.17181e-05
1.89402e-06
1.20251e-05
2.10876e-05
7.47002e-06
2.46147e-05
1.78268e-05
8.76186e-06
2.62147e-05
1.03374e-05
2.75047e-05
1.7616e-05
8.19912e-06
2.50091e-05
1.59317e-05
1.6937e-06
2.51557e-05
-1.26744e-06
2.48622e-05
-1.99961e-07
2.26538e-05
4.18476e-06
1.55151e-05
2.18277e-05
1.01626e-05
2.62349e-05
1.79918e-05
1.17818e-05
2.82841e-05
-6.76548e-06
3.40723e-05
1.44175e-05
-1.19743e-05
3.40245e-05
1.38321e-05
-1.99342e-05
3.23822e-05
-2.06798e-05
3.13125e-05
-1.89713e-05
2.7051e-05
-1.40784e-05
6.78587e-06
2.45755e-05
-6.67059e-06
3.09005e-05
1.29157e-05
-5.60716e-06
-0.0109854
-0.0105929
-0.0102871
-0.0100757
-0.00995937
-0.00994698
-0.010068
-0.0103028
-0.0106456
-0.0110723
-0.0115605
-0.0120589
-0.0125047
-0.0128197
-0.0129531
-0.0129155
-0.0127149
-0.0123669
-0.0119216
-0.011442
0.00232644
0.00228057
0.00214948
0.00198807
0.00183407
0.00174423
0.00167519
0.00159006
0.00146797
0.00131364
0.00111161
0.000888552
0.00069949
0.000605208
0.000667416
0.000935649
0.00131231
0.00170485
0.00203618
0.0022506
-0.00233609
-0.00210069
-0.00191522
-0.00177952
-0.00173016
-0.00178615
-0.00191383
-0.00206371
-0.00228172
-0.00253783
-0.00286928
-0.00322034
-0.00352305
-0.00369284
-0.0037294
-0.00365428
-0.00346593
-0.00318787
-0.0028862
-0.00259686
0.00290997
0.00297338
0.00299761
0.00301506
0.00302001
0.00301994
0.00295329
0.00287517
0.00270854
0.00251566
0.00218787
0.00181886
0.00151233
0.00138187
0.00150937
0.00176895
0.00210744
0.00241286
0.00264728
0.00281027
-0.000458489
-0.000310783
-0.000237868
-0.000190885
-0.000228386
-0.000244148
-0.000305508
-0.000352397
-0.000507858
-0.000704062
-0.00112475
-0.00163063
-0.00205858
-0.00228683
-0.00231024
-0.00212772
-0.00177031
-0.00136232
-0.000981234
-0.000674022
0.00202406
0.0021257
0.00217629
0.00222206
0.00221834
0.00220822
0.00212537
0.0020538
0.00185824
0.00163416
0.00112029
0.000583407
0.000208088
0.000148101
0.000363547
0.000721525
0.00109976
0.00142733
0.00169112
0.00188924
6.06121e-05
0.000104641
0.000108763
0.000112974
9.06216e-05
0.000112636
8.22728e-05
7.50245e-05
-7.18407e-05
-0.000282392
-0.00089086
-0.00153924
-0.00194178
-0.00199573
-0.00169865
-0.00124488
-0.000786622
-0.000429693
-0.000177254
-2.09795e-05
0.00125569
0.00132584
0.00135858
0.00139258
0.00136808
0.0013542
0.00127715
0.00121121
0.00102304
0.000771225
0.00011562
-0.000489374
-0.000756327
-0.000571661
-0.000172597
0.000240206
0.000601467
0.00085552
0.00104138
0.00116866
0.000173706
0.00018355
0.000171129
0.000172241
0.000164753
0.000189024
0.000169143
0.000164344
4.10803e-05
-0.000181149
-0.000863576
-0.00150358
-0.00171819
-0.00145572
-0.000968435
-0.00055225
-0.000224448
-3.11047e-05
9.06682e-05
0.000150536
0.000743289
0.000783448
0.00079975
0.000815322
0.000792528
0.000777246
0.000717347
0.00066225
0.000518042
0.00029024
-0.000337058
-0.000846875
-0.000855927
-0.000556668
-0.000132771
0.000166521
0.000398478
0.000530361
0.000630793
0.000695353
0.000178966
0.00018274
0.000172491
0.000178205
0.000172842
0.000191161
0.000176516
0.000180502
9.86921e-05
-4.70291e-05
-0.000623318
-0.00115662
-0.00109732
-0.000794373
-0.000407356
-0.000171884
6.49419e-06
8.88242e-05
0.000147299
0.000170194
0.000436423
0.00045738
0.000463416
0.000469566
0.000450419
0.000437413
0.000393542
0.000357507
0.000265797
0.000139299
-0.000326207
-0.000619726
-0.000506577
-0.000239524
3.33205e-05
0.000170614
0.0002838
0.000332738
0.000382592
0.000411342
0.000155821
0.000160464
0.000155549
0.000162875
0.000158167
0.000173622
0.000164382
0.0001908
0.000156116
0.000180873
-0.000199689
-0.00057515
-0.000489042
-0.000327927
-0.000117479
-2.5138e-05
6.68407e-05
9.94539e-05
0.000135217
0.00014758
0.000262202
0.000272853
0.000273692
0.000276051
0.000259818
0.00024971
0.00021669
0.000197989
0.000150875
0.000142275
-8.04645e-05
-0.000198009
-0.000125495
-1.03038e-05
0.000111792
0.000143369
0.000195119
0.000207777
0.000235695
0.000248285
0.000127492
0.000133269
0.000132116
0.000139172
0.000135277
0.000148762
0.000144372
0.000185325
0.000191646
0.000365552
0.000228876
-0.000146371
-0.000154553
-0.00013983
-4.82678e-05
-1.04129e-05
5.46746e-05
7.5894e-05
0.000106724
0.000117656
0.000166131
0.000171846
0.000170673
0.000171369
0.000157729
0.000149328
0.000122304
0.000109777
7.80491e-05
0.000145067
0.000251633
8.32051e-06
-2.29621e-05
-1.50986e-05
5.42325e-05
6.77366e-05
0.00011494
0.000125785
0.000149109
0.000156816
0.000102646
0.000108138
0.000108619
0.000114245
0.000110939
0.000120321
0.000116526
0.000141299
0.000130445
0.000185709
0.000108643
-6.10607e-05
-5.50074e-05
-7.63004e-05
-1.48569e-05
-4.37919e-06
4.27244e-05
5.72893e-05
8.33919e-05
9.28841e-05
0.000114285
0.000117259
0.000115595
0.000115531
0.000104538
9.73436e-05
7.62562e-05
6.32421e-05
4.13993e-05
4.32906e-05
7.52964e-05
4.56874e-06
2.90911e-05
2.15082e-05
6.15535e-05
5.81933e-05
8.67023e-05
8.85918e-05
0.000104372
0.000108066
8.37867e-05
8.79457e-05
8.87392e-05
9.25609e-05
8.9551e-05
9.50842e-05
9.22567e-05
0.000104255
9.67734e-05
0.000106182
6.34071e-05
-2.57685e-05
-1.7471e-05
-4.1366e-05
2.86161e-07
3.53417e-06
3.81712e-05
4.77686e-05
6.82511e-05
7.53985e-05
8.5876e-05
8.72898e-05
8.58187e-05
8.53759e-05
7.68737e-05
7.09795e-05
5.52731e-05
4.32269e-05
2.73614e-05
1.7104e-05
3.10731e-05
8.91076e-06
3.95592e-05
3.09318e-05
5.9157e-05
5.14737e-05
7.03195e-05
6.89096e-05
7.98797e-05
8.14617e-05
7.06148e-05
7.31019e-05
7.37192e-05
7.58923e-05
7.28117e-05
7.55205e-05
7.30669e-05
7.74985e-05
7.37343e-05
7.00415e-05
4.88326e-05
-5.59419e-06
5.0037e-07
-1.95316e-05
9.78185e-06
1.0891e-05
3.66667e-05
4.33045e-05
5.89482e-05
6.37677e-05
6.98033e-05
7.01777e-05
6.92065e-05
6.85595e-05
6.21189e-05
5.76267e-05
4.63631e-05
3.61366e-05
2.57578e-05
1.41779e-05
2.27195e-05
1.40087e-05
4.07049e-05
3.28611e-05
5.3783e-05
4.64089e-05
5.9733e-05
5.78511e-05
6.58591e-05
6.642e-05
6.19905e-05
6.27699e-05
6.32916e-05
6.40876e-05
6.09297e-05
6.17076e-05
5.92118e-05
5.91758e-05
5.81645e-05
5.01567e-05
4.18009e-05
6.18027e-06
1.24195e-05
-2.86009e-06
1.84738e-05
1.86702e-05
3.74344e-05
4.21017e-05
5.36426e-05
5.64943e-05
6.06647e-05
5.99137e-05
5.961e-05
5.8696e-05
5.35807e-05
5.03034e-05
4.31124e-05
3.41086e-05
2.87445e-05
1.76143e-05
2.47551e-05
1.8191e-05
3.95098e-05
3.20076e-05
4.83969e-05
4.28912e-05
5.26286e-05
5.15264e-05
5.75897e-05
5.74137e-05
5.66473e-05
5.57341e-05
5.65175e-05
5.63169e-05
5.29277e-05
5.27053e-05
5.01667e-05
4.71823e-05
4.82454e-05
3.88352e-05
3.7922e-05
1.37755e-05
2.15597e-05
1.00085e-05
2.6055e-05
2.59917e-05
3.90326e-05
4.25652e-05
5.0836e-05
5.19615e-05
5.53979e-05
5.34026e-05
5.39175e-05
5.25324e-05
4.82601e-05
4.63681e-05
4.14283e-05
3.35277e-05
3.28043e-05
2.11317e-05
2.93018e-05
2.07486e-05
3.82454e-05
3.114e-05
4.40335e-05
4.07876e-05
4.79305e-05
4.80682e-05
5.25526e-05
5.17963e-05
5.32393e-05
5.10904e-05
5.25294e-05
5.11297e-05
4.79207e-05
4.72891e-05
4.51533e-05
3.97399e-05
4.27087e-05
3.23512e-05
3.67208e-05
1.90315e-05
2.86278e-05
1.88229e-05
3.18795e-05
3.18156e-05
4.06528e-05
4.37835e-05
4.91351e-05
4.92551e-05
5.25204e-05
4.8582e-05
5.05974e-05
4.86878e-05
4.45277e-05
4.37257e-05
4.04059e-05
3.27215e-05
3.58182e-05
2.34291e-05
3.31915e-05
2.24625e-05
3.79306e-05
3.04848e-05
4.14502e-05
4.0087e-05
4.45509e-05
4.64236e-05
4.96147e-05
4.80504e-05
5.19153e-05
4.76641e-05
5.04084e-05
4.77705e-05
4.4161e-05
4.48607e-05
4.21361e-05
3.51552e-05
4.13195e-05
2.82043e-05
3.78205e-05
2.15432e-05
3.38683e-05
2.48306e-05
3.55056e-05
3.6517e-05
4.15425e-05
4.52256e-05
4.80349e-05
4.69344e-05
5.04424e-05
4.50113e-05
4.89021e-05
4.56712e-05
4.18366e-05
4.22644e-05
3.9924e-05
3.07594e-05
3.81269e-05
2.3711e-05
3.64504e-05
2.2952e-05
3.87648e-05
2.95099e-05
3.98426e-05
3.99335e-05
4.2311e-05
4.5994e-05
4.72245e-05
4.55051e-05
5.16538e-05
4.39675e-05
4.96188e-05
4.62601e-05
4.10985e-05
4.33089e-05
4.07716e-05
3.18815e-05
4.16508e-05
2.54764e-05
3.97859e-05
2.26548e-05
3.78045e-05
2.78217e-05
3.81503e-05
4.00529e-05
4.07907e-05
4.67105e-05
4.78759e-05
4.48028e-05
4.98047e-05
4.1309e-05
4.81431e-05
4.36393e-05
3.85567e-05
4.2117e-05
3.92374e-05
2.80945e-05
4.07094e-05
2.15401e-05
3.98028e-05
2.14091e-05
3.97712e-05
2.82907e-05
3.83171e-05
4.06579e-05
3.98433e-05
4.61817e-05
4.54149e-05
4.23632e-05
5.15856e-05
4.10036e-05
4.9891e-05
4.43415e-05
3.82407e-05
4.34695e-05
3.98914e-05
2.81276e-05
4.33036e-05
2.23733e-05
4.25767e-05
2.18408e-05
4.13466e-05
2.82661e-05
3.90649e-05
4.23803e-05
3.98032e-05
4.83193e-05
4.66798e-05
4.25951e-05
5.0324e-05
3.62014e-05
4.84426e-05
4.24896e-05
3.35951e-05
4.31083e-05
3.8471e-05
2.37118e-05
4.32044e-05
1.75598e-05
4.28648e-05
1.81866e-05
4.13933e-05
2.55371e-05
3.64901e-05
4.21218e-05
3.58014e-05
4.68757e-05
4.40728e-05
3.77592e-05
5.20006e-05
3.67557e-05
5.1141e-05
4.26658e-05
3.42834e-05
4.50335e-05
3.88721e-05
2.30858e-05
4.64913e-05
1.7274e-05
4.64524e-05
1.81393e-05
4.45536e-05
2.59867e-05
3.88422e-05
4.41567e-05
3.68703e-05
5.02158e-05
4.50781e-05
3.92755e-05
5.08557e-05
2.97482e-05
5.03978e-05
4.01939e-05
2.69539e-05
4.56666e-05
3.72692e-05
1.62208e-05
4.68443e-05
1.03037e-05
4.68134e-05
1.17533e-05
4.37486e-05
1.99923e-05
3.39296e-05
4.31214e-05
3.02322e-05
4.86224e-05
4.11745e-05
3.18118e-05
5.34637e-05
3.03201e-05
5.36175e-05
4.04731e-05
2.72391e-05
4.8195e-05
3.72444e-05
1.58847e-05
5.02541e-05
9.8935e-06
5.04663e-05
1.16648e-05
4.73846e-05
2.01692e-05
3.73157e-05
4.61815e-05
3.12101e-05
5.2531e-05
4.24397e-05
3.31453e-05
5.28018e-05
1.78483e-05
5.55109e-05
3.77854e-05
1.41224e-05
5.20003e-05
3.56025e-05
1.71092e-06
5.36696e-05
-3.46949e-06
5.35322e-05
-1.14773e-06
4.83584e-05
8.06661e-06
2.94465e-05
4.57285e-05
1.9038e-05
5.2709e-05
3.75481e-05
2.09051e-05
5.48605e-05
1.95004e-05
5.81956e-05
3.62201e-05
1.55908e-05
5.43558e-05
3.37673e-05
3.10012e-06
5.56349e-05
-2.68206e-06
5.55047e-05
-1.99406e-07
5.05498e-05
8.93359e-06
3.35702e-05
4.72917e-05
2.07065e-05
5.58987e-05
3.69259e-05
2.30792e-05
5.81356e-05
-5.05789e-06
6.85118e-05
3.11222e-05
-1.32664e-05
6.84284e-05
3.03269e-05
-2.79117e-05
6.69487e-05
-3.07329e-05
6.56347e-05
-2.72739e-05
5.74342e-05
-1.74176e-05
2.13839e-05
5.15635e-05
-3.39338e-06
6.32277e-05
2.89524e-05
-1.64231e-06
-0.0135278
-0.0129788
-0.0125295
-0.0122019
-0.01201
-0.0119836
-0.0121389
-0.0124543
-0.0129189
-0.0134969
-0.0141521
-0.0148159
-0.0154072
-0.0158315
-0.016025
-0.0159953
-0.0157544
-0.0153234
-0.0147608
-0.0141396
0.00193484
0.00199174
0.00192552
0.00179113
0.00163386
0.00151874
0.00138259
0.00120776
0.000973014
0.000688111
0.000341994
-2.49672e-05
-0.000336762
-0.000510292
-0.000465223
-0.000152078
0.000326085
0.000860109
0.00135136
0.00172297
-0.0027459
-0.00243806
-0.00222171
-0.00208666
-0.00207259
-0.00218005
-0.00237689
-0.00261674
-0.00295135
-0.0033488
-0.00384849
-0.00437067
-0.00481275
-0.00505107
-0.00507894
-0.00489697
-0.00453496
-0.00405796
-0.00356753
-0.00312153
0.00338151
0.003459
0.00347759
0.00348035
0.00345776
0.0034137
0.00328804
0.0031326
0.00285432
0.00251815
0.00200349
0.00145051
0.00102343
0.000887357
0.00113695
0.00158297
0.00213083
0.00262043
0.00299115
0.00323949
-0.0002851
-0.000126049
-5.49607e-05
-1.86431e-05
-7.94786e-05
-0.000120589
-0.000230373
-0.000343906
-0.000610811
-0.000961536
-0.00160177
-0.00231517
-0.00284448
-0.00304769
-0.00291546
-0.00251681
-0.00195106
-0.0013819
-0.000895897
-0.000529247
0.0024775
0.00259673
0.00265281
0.00269947
0.00267659
0.00264317
0.00251175
0.00237478
0.00206388
0.00167593
0.000918344
0.000183438
-0.00024926
-0.000194216
0.000213252
0.000770672
0.00130779
0.00174303
0.00207527
0.00231631
0.000290783
0.000348588
0.000355616
0.000357943
0.000326103
0.000334319
0.000266361
0.000205525
-5.06987e-05
-0.000428799
-0.00130538
-0.00214847
-0.00257496
-0.00248129
-0.00197861
-0.00134305
-0.000752306
-0.000311079
-3.92575e-06
0.000187688
0.00158452
0.00167314
0.00171301
0.00174956
0.00171256
0.00168265
0.0015666
0.00144652
0.00115053
0.00072873
-0.000200121
-0.000970668
-0.00120008
-0.00085749
-0.000266344
0.000288595
0.000752156
0.00107332
0.00130885
0.00147216
0.000370576
0.000392014
0.000381794
0.000385291
0.000369781
0.000385507
0.000336309
0.000289305
7.14251e-05
-0.000312675
-0.00126918
-0.00205812
-0.00219928
-0.00176763
-0.00110739
-0.000574908
-0.000163469
8.28492e-05
0.00024409
0.000330486
0.000967189
0.00102001
0.00104027
0.00105723
0.00102524
0.00099935
0.000910468
0.0008153
0.000585522
0.000209117
-0.000674502
-0.00129086
-0.00120055
-0.000747364
-0.000182927
0.000203728
0.000502472
0.000677188
0.000812713
0.000901859
0.000329411
0.000341249
0.000332194
0.000340338
0.000328702
0.000342002
0.000306538
0.000283453
0.000133249
-0.000135302
-0.000946166
-0.0015668
-0.00139558
-0.000962686
-0.000461118
-0.000160883
7.0203e-05
0.000183963
0.000269175
0.000309147
0.000586509
0.000615281
0.000622972
0.000630245
0.000603985
0.000584505
0.000520955
0.000460885
0.000313312
8.69442e-05
-0.000575974
-0.000910218
-0.000694716
-0.000325191
3.16695e-05
0.000211578
0.000364167
0.000435672
0.000507602
0.000550696
0.00026613
0.000276466
0.000272336
0.000281812
0.000272346
0.000285868
0.00026363
0.000279626
0.00020662
0.000171424
-0.000373936
-0.000792434
-0.000621442
-0.000393055
-0.000119411
5.26802e-07
0.000124026
0.000173095
0.000226814
0.000249836
0.000364246
0.000379869
0.000381295
0.000384696
0.000362915
0.000349249
0.000303388
0.000274181
0.00019849
0.000146829
-0.000189856
-0.000322348
-0.000185573
-2.68904e-05
0.000136432
0.000181846
0.000256485
0.000279841
0.000322298
0.000343311
0.000207961
0.000217957
0.000217419
0.000226346
0.000218824
0.000232262
0.00022029
0.000262022
0.000254047
0.000423631
0.000205041
-0.000227906
-0.000194046
-0.000162109
-3.66898e-05
1.11092e-05
9.83071e-05
0.000129244
0.000173721
0.000191954
0.000238143
0.000247238
0.000246233
0.000247827
0.000229726
0.000219245
0.00018308
0.00016667
0.000120647
0.000188026
0.000272716
-3.08677e-05
-4.12412e-05
-2.51532e-05
7.11185e-05
9.17286e-05
0.000157794
0.00017567
0.000210364
0.000223695
0.000162706
0.000171295
0.00017221
0.000179293
0.000173052
0.000182689
0.000173561
0.000199894
0.000179835
0.000239157
0.000132111
-8.80806e-05
-6.91106e-05
-9.18594e-05
-6.24205e-06
9.32406e-06
7.47023e-05
9.61767e-05
0.000133328
0.000148084
0.000167969
0.000173235
0.000171559
0.000172162
0.000157543
0.000148832
0.000120821
0.00010488
7.37141e-05
7.4093e-05
9.73924e-05
-5.63919e-06
3.07028e-05
2.03742e-05
7.89411e-05
7.74063e-05
0.000120053
0.000126025
0.000150486
0.000157904
0.000130617
0.00013688
0.000137904
0.000142705
0.000137203
0.000142736
0.000135877
0.000147994
0.000134451
0.000142446
8.56134e-05
-3.37904e-05
-1.73106e-05
-4.70647e-05
1.15472e-05
1.66371e-05
6.4999e-05
7.88856e-05
0.000107801
0.000118511
0.000128423
0.000131283
0.000129721
0.000129678
0.000118224
0.000111087
9.01544e-05
7.51979e-05
5.28844e-05
3.85461e-05
4.83407e-05
9.58034e-06
5.01815e-05
3.6689e-05
7.82181e-05
6.99153e-05
9.90334e-05
9.97488e-05
0.000117176
0.000121114
0.000109124
0.000112845
0.000113542
0.000116241
0.000110952
0.000113376
0.000107745
0.00011115
0.000103501
9.60402e-05
6.81751e-05
-4.55224e-06
8.1173e-06
-1.77966e-05
2.39301e-05
2.53115e-05
6.12387e-05
7.04659e-05
9.2387e-05
9.94534e-05
0.000105583
0.000106684
0.00010563
0.000105113
9.62369e-05
9.0724e-05
7.55813e-05
6.25253e-05
4.80556e-05
3.17183e-05
3.88016e-05
2.03329e-05
5.54178e-05
4.28195e-05
7.36673e-05
6.49946e-05
8.58932e-05
8.51878e-05
9.79998e-05
9.99665e-05
9.53972e-05
9.66257e-05
9.71997e-05
9.81142e-05
9.29492e-05
9.32698e-05
8.8226e-05
8.6448e-05
8.32474e-05
7.0827e-05
6.00097e-05
1.25778e-05
2.4647e-05
4.37879e-06
3.50784e-05
3.49499e-05
6.11371e-05
6.74403e-05
8.35729e-05
8.76921e-05
9.2397e-05
9.16737e-05
9.1409e-05
9.03387e-05
8.31181e-05
7.90424e-05
6.90708e-05
5.72809e-05
4.98324e-05
3.39181e-05
4.14934e-05
2.79703e-05
5.63806e-05
4.46273e-05
6.87429e-05
6.20617e-05
7.73934e-05
7.71384e-05
8.67533e-05
8.72671e-05
8.70154e-05
8.57957e-05
8.67787e-05
8.63288e-05
8.10441e-05
8.03711e-05
7.57796e-05
7.05463e-05
7.08812e-05
5.68514e-05
5.61628e-05
2.36799e-05
3.70485e-05
2.13101e-05
4.46383e-05
4.41722e-05
6.2502e-05
6.72534e-05
7.88005e-05
8.04379e-05
8.47644e-05
8.20775e-05
8.29117e-05
8.10337e-05
7.48438e-05
7.24633e-05
6.54529e-05
5.47227e-05
5.36977e-05
3.70837e-05
4.73083e-05
3.27332e-05
5.65965e-05
4.56634e-05
6.47851e-05
6.08028e-05
7.19772e-05
7.30084e-05
8.00129e-05
7.9382e-05
8.18486e-05
7.86404e-05
8.06524e-05
7.85798e-05
7.35442e-05
7.2657e-05
6.8866e-05
6.07048e-05
6.43634e-05
4.90228e-05
5.57126e-05
3.12668e-05
4.65716e-05
3.29328e-05
5.19459e-05
5.1673e-05
6.41077e-05
6.84593e-05
7.59778e-05
7.6046e-05
8.05967e-05
7.50816e-05
7.79792e-05
7.51778e-05
6.90978e-05
6.82373e-05
6.32889e-05
5.24914e-05
5.69766e-05
3.9142e-05
5.25527e-05
3.58232e-05
5.7582e-05
4.63619e-05
6.26524e-05
6.10889e-05
6.81602e-05
7.13028e-05
7.61059e-05
7.41453e-05
7.966e-05
7.33774e-05
7.73871e-05
7.3575e-05
6.80163e-05
6.90338e-05
6.4788e-05
5.44842e-05
6.30305e-05
4.3985e-05
5.79986e-05
3.50529e-05
5.37183e-05
4.07462e-05
5.65544e-05
5.78151e-05
6.49093e-05
7.02246e-05
7.41982e-05
7.24987e-05
7.78377e-05
6.97922e-05
7.54815e-05
7.08011e-05
6.48804e-05
6.59523e-05
6.21599e-05
4.91927e-05
5.98709e-05
3.88764e-05
5.71895e-05
3.69055e-05
5.96731e-05
4.61384e-05
6.14028e-05
6.18821e-05
6.5502e-05
7.11585e-05
7.30501e-05
7.04569e-05
7.90749e-05
6.79965e-05
7.61308e-05
7.10475e-05
6.34677e-05
6.69306e-05
6.28588e-05
4.97761e-05
6.3969e-05
4.03218e-05
6.13374e-05
3.65629e-05
5.91987e-05
4.45543e-05
5.98071e-05
6.25449e-05
6.37169e-05
7.22095e-05
7.36154e-05
6.92544e-05
7.69998e-05
6.43973e-05
7.44738e-05
6.78119e-05
6.00563e-05
6.56156e-05
6.10203e-05
4.50206e-05
6.33672e-05
3.55645e-05
6.20147e-05
3.50591e-05
6.18338e-05
4.49966e-05
5.996e-05
6.35047e-05
6.2314e-05
7.18056e-05
7.06668e-05
6.60468e-05
7.89947e-05
6.33249e-05
7.64641e-05
6.82638e-05
5.90021e-05
6.71977e-05
6.15626e-05
4.42651e-05
6.66313e-05
3.5767e-05
6.56621e-05
3.51642e-05
6.41198e-05
4.48373e-05
6.08244e-05
6.58319e-05
6.19079e-05
7.44492e-05
7.18505e-05
6.57276e-05
7.7654e-05
5.72138e-05
7.50285e-05
6.58897e-05
5.30999e-05
6.70199e-05
5.98206e-05
3.85407e-05
6.7052e-05
2.96739e-05
6.66433e-05
3.05552e-05
6.46151e-05
4.13699e-05
5.78201e-05
6.58023e-05
5.69137e-05
7.31035e-05
6.86498e-05
5.9709e-05
7.96324e-05
5.68442e-05
7.82876e-05
6.57416e-05
5.28663e-05
6.95046e-05
6.00493e-05
3.67283e-05
7.12634e-05
2.82721e-05
7.13038e-05
2.96607e-05
6.86349e-05
4.1229e-05
6.0222e-05
6.8409e-05
5.73752e-05
7.71484e-05
6.94183e-05
6.0536e-05
7.84873e-05
4.80167e-05
7.78582e-05
6.26203e-05
4.36682e-05
7.07058e-05
5.80307e-05
2.79001e-05
7.23278e-05
1.93421e-05
7.24305e-05
2.15322e-05
6.8203e-05
3.36622e-05
5.44552e-05
6.74872e-05
4.91159e-05
7.57246e-05
6.46079e-05
5.13178e-05
8.15911e-05
4.72558e-05
8.19791e-05
6.24772e-05
4.24902e-05
7.42128e-05
5.76746e-05
2.58548e-05
7.68979e-05
1.72625e-05
7.73166e-05
1.9987e-05
7.28048e-05
3.25797e-05
5.77511e-05
7.12361e-05
4.89874e-05
8.0553e-05
6.54689e-05
5.15242e-05
8.10248e-05
3.2067e-05
8.47365e-05
5.9007e-05
2.6502e-05
7.92975e-05
5.5504e-05
8.52405e-06
8.15177e-05
8.52515e-07
8.152e-05
4.30472e-06
7.43628e-05
1.77643e-05
4.84967e-05
7.09327e-05
3.4226e-05
8.12034e-05
5.93377e-05
3.67036e-05
8.36218e-05
3.21602e-05
8.85871e-05
5.67025e-05
2.61642e-05
8.30278e-05
5.30201e-05
7.88667e-06
8.47089e-05
-3.51294e-07
8.46914e-05
3.40884e-06
7.7473e-05
1.69026e-05
5.24249e-05
7.31003e-05
3.44409e-05
8.54486e-05
5.79338e-05
3.74654e-05
8.72228e-05
4.29565e-06
0.000100641
5.06109e-05
-6.50093e-06
9.95038e-05
4.89332e-05
-2.72325e-05
9.7931e-05
-3.21966e-05
9.65368e-05
-2.73083e-05
8.53702e-05
-1.30473e-05
3.84726e-05
7.79179e-05
7.13956e-06
9.38499e-05
4.83567e-05
9.54962e-06
-0.0149475
-0.0143224
-0.0138086
-0.0134333
-0.0132194
-0.0132033
-0.0133924
-0.0137646
-0.0143061
-0.0149737
-0.0157231
-0.0164749
-0.0171369
-0.0176052
-0.0178117
-0.0177648
-0.0174793
-0.0169838
-0.0163443
-0.0156409
0.00141628
0.00152514
0.0014959
0.00138253
0.00123543
0.0011119
0.000935556
0.000703389
0.000393278
2.11928e-05
-0.000418395
-0.000873227
-0.00125267
-0.00146137
-0.00140863
-0.00105261
-0.000506681
0.000110122
0.000686883
0.00113767
-0.00310401
-0.00274781
-0.00250825
-0.00236975
-0.00238008
-0.00252117