/*--------------------------------*- C++ -*----------------------------------*\
| =========                 |                                                 |
| \\      /  F ield         | OpenFOAM: The Open Source CFD Toolbox           |
|  \\    /   O peration     | Version:  2.4.0                                 |
|   \\  /    A nd           | Web:      www.OpenFOAM.org                      |
|    \\/     M anipulation  |                                                 |
\*---------------------------------------------------------------------------*/
FoamFile
{
    version     2.0;
    format      ascii;
    class       volScalarField;
    location    "180";
    object      p;
}
// * * * * * * * * * * * * * * * * * * * * * * * * * * * * * * * * * * * * * //

dimensions      [0 2 -2 0 0 0 0];

internalField   nonuniform List<scalar> 
283312
(
-0.00622642
-0.00628949
-0.00653257
-0.00687485
-0.00722801
-0.00752291
-0.00775198
-0.0079108
-0.00803244
-0.00814098
-0.00825698
-0.00836715
-0.0084392
-0.0084171
-0.00826658
-0.00799494
-0.00761387
-0.0071603
-0.00671565
-0.00637807
0.00214516
0.00164158
0.00121617
0.000949203
0.000852762
0.00092109
0.00106614
0.00120867
0.00132093
0.00141083
0.00148081
0.00156226
0.00169248
0.00189375
0.00217863
0.00254563
0.00285734
0.00300354
0.00292174
0.00261203
-0.00231187
-0.00215636
-0.00192833
-0.00168402
-0.00148875
-0.00138961
-0.00136956
-0.00137399
-0.0014206
-0.00145873
-0.0014847
-0.00145995
-0.00138775
-0.00129056
-0.00124997
-0.00136427
-0.00161369
-0.0019153
-0.00218166
-0.00232521
0.00146993
0.0016455
0.00179132
0.0019077
0.00199168
0.00206094
0.00206845
0.00207613
0.00204554
0.00206182
0.00208636
0.00213813
0.0021647
0.00211623
0.00198128
0.00173318
0.0014785
0.00129345
0.0012403
0.00131757
-0.000744029
-0.000545213
-0.000428278
-0.000349853
-0.000346395
-0.000333138
-0.000343906
-0.000328665
-0.000355004
-0.000323242
-0.000320416
-0.000370801
-0.000554078
-0.000884823
-0.00132207
-0.00166816
-0.00175936
-0.00161598
-0.00132867
-0.001011
0.00119628
0.00130596
0.00136384
0.00140963
0.00142338
0.00143091
0.00139681
0.0013846
0.00132299
0.0013419
0.00129927
0.00117868
0.000891081
0.000515719
0.000240775
0.000168237
0.000299671
0.000546339
0.000814228
0.0010391
-0.000152076
-0.000112383
-0.000105278
-9.931e-05
-0.000110346
-8.51791e-05
-8.524e-05
-5.62033e-05
-8.51056e-05
-5.18374e-05
-0.000151425
-0.000415386
-0.000845986
-0.00127674
-0.00141958
-0.00126487
-0.000946726
-0.00062994
-0.00038557
-0.000231708
0.00075664
0.00080577
0.000829305
0.000854288
0.000842755
0.00083918
0.00080202
0.000782003
0.000715277
0.000710179
0.000564333
0.000260363
-0.000152508
-0.000362417
-0.000322229
-9.26785e-05
0.00019411
0.000423328
0.000587023
0.000691315
-3.27272e-06
-1.12095e-06
-1.16714e-05
-1.2994e-05
-1.42108e-05
7.69047e-06
9.73929e-06
2.97756e-05
3.41421e-06
1.02287e-05
-0.000175833
-0.000574695
-0.000978609
-0.00107321
-0.0008712
-0.000585169
-0.000321021
-0.000155775
-5.87962e-05
-1.59583e-05
0.000436565
0.000461135
0.000471901
0.000482387
0.000469709
0.00046134
0.000431261
0.000409194
0.000357264
0.000342281
0.00016779
-0.000196756
-0.000448832
-0.000441519
-0.000216891
4.95952e-06
0.000188695
0.000294194
0.000365232
0.000407087
4.11302e-05
3.94141e-05
3.08081e-05
3.29034e-05
3.23082e-05
4.73572e-05
4.78786e-05
6.42545e-05
4.79566e-05
7.42797e-05
-9.86427e-05
-0.000524202
-0.0007055
-0.000627605
-0.000389732
-0.000207568
-7.07658e-05
-7.95631e-06
2.90814e-05
4.00228e-05
0.000247509
0.000259214
0.000262961
0.000266071
0.00025495
0.000246167
0.000222809
0.000205344
0.000170879
0.000190803
5.72436e-05
-0.000222454
-0.000327471
-0.000223909
-4.62546e-05
6.64877e-05
0.000151405
0.00018763
0.00021772
0.000233673
5.26999e-05
5.28536e-05
4.85297e-05
5.21298e-05
5.10478e-05
6.23427e-05
6.21245e-05
8.57459e-05
8.28902e-05
0.000189839
7.76533e-05
-0.000268078
-0.000352497
-0.000288816
-0.00014554
-6.51063e-05
2.15253e-06
2.59891e-05
4.59544e-05
5.0699e-05
0.000143108
0.000148229
0.000148352
0.000148588
0.000138791
0.000130955
0.000111944
9.98298e-05
7.97561e-05
0.000137426
9.81821e-05
-5.04131e-05
-0.000107924
-5.3767e-05
3.22993e-05
6.86925e-05
0.000105959
0.000115639
0.000130514
0.000136318
5.10068e-05
5.28268e-05
5.14248e-05
5.5061e-05
5.39123e-05
6.29348e-05
6.33367e-05
9.1951e-05
0.000104245
0.000279396
0.000267348
-5.00058e-05
-0.000136631
-0.000139798
-7.62192e-05
-3.64073e-05
9.17582e-06
2.4819e-05
4.19571e-05
4.69544e-05
8.73041e-05
8.94626e-05
8.8177e-05
8.73296e-05
7.89404e-05
7.20146e-05
5.57247e-05
4.51421e-05
2.74663e-05
8.47958e-05
0.000195318
3.67544e-05
-2.02154e-05
-2.05607e-05
2.01961e-05
3.33758e-05
6.17323e-05
6.84697e-05
8.01501e-05
8.32337e-05
4.48726e-05
4.71206e-05
4.70424e-05
4.99116e-05
4.88223e-05
5.48441e-05
5.47152e-05
7.11778e-05
6.75414e-05
0.000106342
6.63465e-05
-3.0725e-05
-4.01473e-05
-5.53247e-05
-2.19309e-05
-1.32276e-05
1.32095e-05
2.18701e-05
3.56137e-05
4.02506e-05
5.82035e-05
5.89217e-05
5.73574e-05
5.62136e-05
4.94386e-05
4.35295e-05
3.07703e-05
2.039e-05
8.514e-06
7.992e-06
3.99892e-05
9.23184e-06
1.8156e-05
1.56539e-05
3.53104e-05
3.39815e-05
4.78068e-05
4.78829e-05
5.48616e-05
5.58004e-05
3.84055e-05
4.02521e-05
4.0526e-05
4.23808e-05
4.12639e-05
4.47123e-05
4.46945e-05
5.28205e-05
5.05517e-05
5.74092e-05
3.31077e-05
-1.58072e-05
-1.72103e-05
-3.11303e-05
-9.2643e-06
-5.6469e-06
1.33461e-05
1.9375e-05
3.03316e-05
3.41478e-05
4.27653e-05
4.28491e-05
4.15062e-05
4.03749e-05
3.51829e-05
3.04345e-05
2.09553e-05
1.20789e-05
3.39706e-06
-3.33424e-06
1.08186e-05
5.79961e-06
2.20697e-05
1.97933e-05
3.32998e-05
2.93298e-05
3.78622e-05
3.63693e-05
4.10259e-05
4.11537e-05
3.31841e-05
3.42958e-05
3.45239e-05
3.54645e-05
3.41255e-05
3.57331e-05
3.5517e-05
3.8836e-05
3.82213e-05
3.7104e-05
2.48079e-05
-5.71513e-06
-6.73128e-06
-1.77843e-05
-2.75326e-06
-4.79514e-07
1.37079e-05
1.82612e-05
2.67978e-05
2.95678e-05
3.42382e-05
3.40089e-05
3.30742e-05
3.20682e-05
2.82138e-05
2.46464e-05
1.78743e-05
1.08029e-05
4.98987e-06
-1.66539e-06
6.14541e-06
6.39411e-06
2.12016e-05
1.91037e-05
2.90723e-05
2.52954e-05
3.11649e-05
2.9711e-05
3.31122e-05
3.30037e-05
2.94954e-05
2.97937e-05
2.99656e-05
3.01641e-05
2.86578e-05
2.89987e-05
2.8357e-05
2.88564e-05
2.92893e-05
2.54889e-05
2.04583e-05
2.57881e-07
5.07086e-07
-7.56033e-06
3.18145e-06
4.67321e-06
1.50132e-05
1.8405e-05
2.47743e-05
2.65596e-05
2.94671e-05
2.88403e-05
2.83649e-05
2.74209e-05
2.44377e-05
2.18342e-05
1.76146e-05
1.1739e-05
8.58117e-06
2.58751e-06
7.90046e-06
7.69132e-06
1.94354e-05
1.70234e-05
2.49049e-05
2.22075e-05
2.65118e-05
2.57141e-05
2.83894e-05
2.81132e-05
2.71032e-05
2.65831e-05
2.6868e-05
2.65908e-05
2.48555e-05
2.45061e-05
2.35246e-05
2.21841e-05
2.32557e-05
1.86419e-05
1.76405e-05
4.20338e-06
6.20144e-06
4.18883e-07
8.37503e-06
9.41015e-06
1.65656e-05
1.91491e-05
2.37685e-05
2.46207e-05
2.67141e-05
2.55999e-05
2.55935e-05
2.45698e-05
2.21576e-05
2.05526e-05
1.76869e-05
1.28765e-05
1.22156e-05
6.05581e-06
1.1028e-05
8.51545e-06
1.78734e-05
1.53452e-05
2.14834e-05
2.00765e-05
2.33391e-05
2.33534e-05
2.54486e-05
2.50271e-05
2.54484e-05
2.44695e-05
2.50281e-05
2.41459e-05
2.25288e-05
2.18067e-05
2.09111e-05
1.80863e-05
1.96988e-05
1.46851e-05
1.64232e-05
7.08715e-06
1.06171e-05
5.88856e-06
1.23611e-05
1.30735e-05
1.7979e-05
2.0102e-05
2.31229e-05
2.34913e-05
2.51839e-05
2.3142e-05
2.3946e-05
2.28402e-05
2.05371e-05
1.95776e-05
1.77451e-05
1.33986e-05
1.46329e-05
8.35704e-06
1.34686e-05
9.20144e-06
1.70682e-05
1.41506e-05
1.93716e-05
1.89644e-05
2.10329e-05
2.20591e-05
2.37303e-05
2.29582e-05
2.48859e-05
2.29152e-05
2.40379e-05
2.25717e-05
2.073e-05
2.07412e-05
1.93292e-05
1.57182e-05
1.8716e-05
1.22428e-05
1.67058e-05
8.47784e-06
1.381e-05
9.71409e-06
1.48306e-05
1.59684e-05
1.88456e-05
2.1023e-05
2.26902e-05
2.23942e-05
2.39077e-05
2.14071e-05
2.30726e-05
2.13495e-05
1.94311e-05
1.90264e-05
1.78922e-05
1.29008e-05
1.6216e-05
9.19202e-06
1.53213e-05
9.41307e-06
1.7118e-05
1.30688e-05
1.80288e-05
1.8301e-05
1.96179e-05
2.15155e-05
2.22646e-05
2.16382e-05
2.48238e-05
2.1076e-05
2.36642e-05
2.20575e-05
1.93141e-05
1.99297e-05
1.87165e-05
1.42278e-05
1.86928e-05
1.09199e-05
1.75016e-05
9.30902e-06
1.61127e-05
1.17389e-05
1.66858e-05
1.8075e-05
1.86299e-05
2.18574e-05
2.28468e-05
2.13987e-05
2.34605e-05
1.95775e-05
2.25819e-05
2.03819e-05
1.78815e-05
1.90724e-05
1.77405e-05
1.1923e-05
1.77499e-05
8.43209e-06
1.71195e-05
8.58163e-06
1.7295e-05
1.22062e-05
1.68789e-05
1.83431e-05
1.82136e-05
2.13444e-05
2.12109e-05
1.99487e-05
2.47009e-05
1.98557e-05
2.37893e-05
2.1126e-05
1.81536e-05
2.00038e-05
1.83883e-05
1.2546e-05
1.93969e-05
9.61595e-06
1.87839e-05
9.23842e-06
1.81252e-05
1.23526e-05
1.74442e-05
1.93361e-05
1.84695e-05
2.26996e-05
2.22836e-05
2.04993e-05
2.36981e-05
1.69182e-05
2.25827e-05
2.00074e-05
1.53198e-05
1.95724e-05
1.75139e-05
9.96798e-06
1.89666e-05
6.73308e-06
1.85542e-05
7.05681e-06
1.78775e-05
1.07401e-05
1.57004e-05
1.89857e-05
1.59862e-05
2.14582e-05
2.06109e-05
1.74331e-05
2.47901e-05
1.80072e-05
2.43206e-05
2.03932e-05
1.65292e-05
2.07155e-05
1.80025e-05
1.03399e-05
2.09545e-05
7.36706e-06
2.06903e-05
7.69549e-06
1.98258e-05
1.15781e-05
1.75627e-05
2.02337e-05
1.72956e-05
2.36207e-05
2.15913e-05
1.91131e-05
2.38083e-05
1.37075e-05
2.34439e-05
1.88903e-05
1.20166e-05
2.07724e-05
1.70593e-05
6.29442e-06
2.07012e-05
3.26357e-06
2.0416e-05
3.90443e-06
1.89015e-05
7.95945e-06
1.42182e-05
1.93202e-05
1.31697e-05
2.21853e-05
1.91217e-05
1.43771e-05
2.54749e-05
1.51784e-05
2.53144e-05
1.94444e-05
1.33595e-05
2.20382e-05
1.73256e-05
7.33403e-06
2.25539e-05
4.25682e-06
2.24259e-05
5.00178e-06
2.10905e-05
9.10939e-06
1.69913e-05
2.12719e-05
1.48274e-05
2.46043e-05
2.04453e-05
1.62836e-05
2.47622e-05
7.29356e-06
2.60603e-05
1.79298e-05
5.09486e-06
2.40023e-05
1.64932e-05
-1.53892e-06
2.42775e-05
-4.02112e-06
2.39385e-05
-2.97479e-06
2.13438e-05
1.55929e-06
1.16439e-05
2.07552e-05
7.09149e-06
2.42878e-05
1.74912e-05
8.44401e-06
2.58829e-05
1.00401e-05
2.71693e-05
1.72946e-05
7.89944e-06
2.46574e-05
1.55855e-05
1.4004e-06
2.47626e-05
-1.56284e-06
2.44743e-05
-5.10858e-07
2.22765e-05
3.84643e-06
1.5131e-05
2.14878e-05
9.77863e-06
2.59006e-05
1.76465e-05
1.14555e-05
2.79748e-05
-7.0231e-06
3.37334e-05
1.4111e-05
-1.2213e-05
3.36573e-05
1.35003e-05
-2.01665e-05
3.19738e-05
-2.09304e-05
3.09164e-05
-1.92482e-05
2.66814e-05
-1.43959e-05
6.41425e-06
2.42781e-05
-7.05112e-06
3.06137e-05
1.26082e-05
-5.91078e-06
-0.01092
-0.0105279
-0.010222
-0.0100102
-0.00989342
-0.00987976
-0.0099991
-0.0102321
-0.0105732
-0.0109985
-0.0114863
-0.0119856
-0.012433
-0.0127499
-0.0128842
-0.0128468
-0.0126466
-0.0122993
-0.0118548
-0.0113761
0.00234397
0.00229813
0.0021672
0.00200644
0.00185378
0.00176515
0.00169724
0.0016132
0.00149195
0.00133796
0.00113547
0.000911096
0.000720248
0.000624507
0.000685737
0.000953141
0.00132984
0.00172237
0.00205368
0.00226814
-0.00232628
-0.00208947
-0.00190171
-0.00176315
-0.00171106
-0.00176416
-0.00188875
-0.00203515
-0.00224966
-0.00250289
-0.00283308
-0.00318531
-0.0034917
-0.00366633
-0.00370747
-0.00363525
-0.00344952
-0.00317372
-0.00287448
-0.00258681
0.00289924
0.00296415
0.00298989
0.00300911
0.00301547
0.00301678
0.0029516
0.00287556
0.00271158
0.00252149
0.00219527
0.00182489
0.00151321
0.00137744
0.00150148
0.00175841
0.00209566
0.00240042
0.00263481
0.00279849
-0.000459015
-0.000310613
-0.000236835
-0.000188663
-0.00022482
-0.00023866
-0.000297853
-0.000341815
-0.00049311
-0.000684235
-0.00110002
-0.00160568
-0.00204063
-0.00228001
-0.00231115
-0.00213277
-0.00177518
-0.00136547
-0.000982995
-0.000674939
0.00200974
0.00211234
0.0021637
0.00221039
0.00220727
0.002198
0.00211625
0.00204623
0.0018538
0.0016346
0.00112729
0.000592429
0.000209672
0.000139309
0.000347455
0.000702115
0.00108002
0.00140895
0.00167438
0.00187394
5.47394e-05
9.96624e-05
0.000104592
0.000109622
8.80741e-05
0.000110712
8.13596e-05
7.5146e-05
-6.80305e-05
-0.000272229
-0.000867092
-0.00150376
-0.00191393
-0.00198565
-0.00170128
-0.00125227
-0.00079491
-0.000437595
-0.000184516
-2.749e-05
0.00124317
0.00131397
0.00134719
0.00138173
0.00135785
0.0013444
0.00126835
0.00120331
0.00101853
0.000771961
0.000131177
-0.000457634
-0.000722589
-0.000554468
-0.000172959
0.000229718
0.000587209
0.000840844
0.00102733
0.00115549
0.000166704
0.00017752
0.000165884
0.000167716
0.000160735
0.000185198
0.000165898
0.000161519
4.06397e-05
-0.000177222
-0.000848153
-0.00147459
-0.00168255
-0.00143021
-0.000960955
-0.000555866
-0.000232755
-4.0304e-05
8.18923e-05
0.000142666
0.000734109
0.000774604
0.000791154
0.000807001
0.000784636
0.000769599
0.000710442
0.000655915
0.00051401
0.000289293
-0.000329073
-0.00082846
-0.000834803
-0.000542454
-0.000130492
0.000161321
0.00038969
0.000520605
0.000620986
0.000685887
0.000172979
0.000177429
0.000167745
0.000173975
0.000168979
0.000187443
0.000173223
0.000177455
9.70861e-05
-4.6382e-05
-0.000616325
-0.00114203
-0.00108053
-0.000783067
-0.000404967
-0.000175208
2.66789e-07
8.17809e-05
0.000140272
0.000163653
0.000429966
0.000451062
0.000457184
0.000463468
0.000444528
0.000431634
0.000388248
0.000352499
0.000262239
0.000136971
-0.000323765
-0.000612681
-0.000499076
-0.00023528
3.25661e-05
0.000166677
0.000278051
0.000326348
0.000375989
0.000404815
0.000151061
0.000156126
0.000151569
0.000159248
0.000154806
0.00017042
0.000161507
0.000188089
0.000154234
0.000179668
-0.000197517
-0.000569868
-0.000483531
-0.000325076
-0.000118382
-2.84537e-05
6.20923e-05
9.42242e-05
0.000129903
0.000142511
0.000257571
0.000268278
0.000269123
0.000271535
0.000255377
0.000245313
0.000212593
0.000194024
0.000147773
0.000139453
-8.11011e-05
-0.000196842
-0.000124366
-1.06784e-05
0.000109567
0.000139981
0.000190949
0.000203301
0.000231052
0.000243654
0.000123739
0.00012977
0.000128817
0.000136103
0.000132375
0.000146016
0.00014187
0.00018299
0.000189803
0.00036391
0.00022868
-0.000145838
-0.000154135
-0.000140324
-5.03519e-05
-1.34635e-05
5.09361e-05
7.19134e-05
0.000102666
0.000113737
0.000162671
0.000168416
0.000167222
0.00016794
0.000154315
0.000145941
0.000119109
0.000106687
7.55382e-05
0.000142752
0.000250212
7.35007e-06
-2.45698e-05
-1.71688e-05
5.17854e-05
6.4893e-05
0.000111756
0.000122454
0.000145661
0.000153372
9.96447e-05
0.000105284
0.000105861
0.00011163
0.000108414
0.000117926
0.0001143
0.000139248
0.000128745
0.000184366
0.000107989
-6.14853e-05
-5.55625e-05
-7.74885e-05
-1.69065e-05
-6.88495e-06
3.97928e-05
5.42003e-05
8.0228e-05
8.9799e-05
0.000111578
0.000114577
0.000112888
0.000112842
0.00010184
9.46774e-05
7.37038e-05
6.07902e-05
3.92837e-05
4.13711e-05
7.37752e-05
3.28839e-06
2.75665e-05
1.97492e-05
5.95008e-05
5.59318e-05
8.41947e-05
8.59837e-05
0.000101671
0.000105372
8.13337e-05
8.558e-05
8.64092e-05
9.03157e-05
8.73404e-05
9.29693e-05
9.02413e-05
0.000102382
9.51186e-05
0.000104748
6.23365e-05
-2.66823e-05
-1.85107e-05
-4.27367e-05
-1.54098e-06
1.41111e-06
3.57753e-05
4.52796e-05
6.57038e-05
7.29043e-05
8.36635e-05
8.51048e-05
8.36091e-05
8.31872e-05
7.46677e-05
6.88135e-05
5.31688e-05
4.12228e-05
2.55431e-05
1.54609e-05
2.96097e-05
7.593e-06
3.81066e-05
2.93814e-05
5.73855e-05
4.95649e-05
6.82317e-05
6.6757e-05
7.76584e-05
7.92561e-05
6.85615e-05
7.11055e-05
7.17268e-05
7.39511e-05
7.08727e-05
7.36498e-05
7.12447e-05
7.57869e-05
7.21416e-05
6.86006e-05
4.75733e-05
-6.72652e-06
-7.38083e-07
-2.09374e-05
8.10058e-06
9.04142e-06
3.4641e-05
4.12305e-05
5.68318e-05
6.1694e-05
6.79287e-05
6.83338e-05
6.73402e-05
6.67161e-05
6.02547e-05
5.58052e-05
4.4568e-05
3.44358e-05
2.4152e-05
1.27211e-05
2.13412e-05
1.27303e-05
3.93281e-05
3.14383e-05
5.2195e-05
4.47314e-05
5.79232e-05
5.60043e-05
6.39629e-05
6.45475e-05
6.02294e-05
6.10524e-05
6.15632e-05
6.23936e-05
5.92231e-05
6.00515e-05
5.75706e-05
5.76245e-05
5.66647e-05
4.87762e-05
4.04939e-05
4.97769e-06
1.11242e-05
-4.23088e-06
1.69241e-05
1.70302e-05
3.56755e-05
4.03227e-05
5.18321e-05
5.47226e-05
5.90309e-05
5.83135e-05
5.79889e-05
5.70982e-05
5.19622e-05
4.8725e-05
4.15376e-05
3.26191e-05
2.72901e-05
1.62858e-05
2.3448e-05
1.69657e-05
3.81981e-05
3.06765e-05
4.69369e-05
4.13777e-05
5.10157e-05
4.9898e-05
5.59256e-05
5.57797e-05
5.51011e-05
5.42275e-05
5.49939e-05
5.48202e-05
5.14137e-05
5.12305e-05
4.86863e-05
4.57807e-05
4.685e-05
3.75434e-05
3.66378e-05
1.25795e-05
2.02786e-05
8.70307e-06
2.46221e-05
2.45148e-05
3.74698e-05
4.10001e-05
4.92462e-05
5.04099e-05
5.39417e-05
5.19831e-05
5.24771e-05
5.11152e-05
4.68246e-05
4.49671e-05
4.00157e-05
3.21932e-05
3.14638e-05
1.99014e-05
2.80529e-05
1.95761e-05
3.69895e-05
2.98847e-05
4.26722e-05
3.94e-05
4.6466e-05
4.66042e-05
5.10617e-05
5.034e-05
5.18523e-05
4.97437e-05
5.11631e-05
4.97878e-05
4.65634e-05
4.59627e-05
4.38094e-05
3.84696e-05
4.14119e-05
3.11521e-05
3.54873e-05
1.7878e-05
2.73902e-05
1.75903e-05
3.0546e-05
3.04664e-05
3.92365e-05
4.23769e-05
4.77076e-05
4.78666e-05
5.11977e-05
4.72999e-05
4.92936e-05
4.74065e-05
4.32334e-05
4.24583e-05
3.91177e-05
3.15076e-05
3.45666e-05
2.22811e-05
3.19934e-05
2.13415e-05
3.6724e-05
2.92958e-05
4.01693e-05
3.88007e-05
4.3202e-05
4.50873e-05
4.82563e-05
4.673e-05
5.06471e-05
4.64396e-05
4.91623e-05
4.65484e-05
4.29294e-05
4.36513e-05
4.09032e-05
3.39953e-05
4.01061e-05
2.70905e-05
3.66413e-05
2.04441e-05
3.26806e-05
2.36665e-05
3.42533e-05
3.52683e-05
4.02369e-05
4.39388e-05
4.6729e-05
4.56691e-05
4.92204e-05
4.38356e-05
4.7702e-05
4.44931e-05
4.06538e-05
4.10985e-05
3.87324e-05
2.9644e-05
3.69459e-05
2.26364e-05
3.52973e-05
2.18824e-05
3.7603e-05
2.83807e-05
3.86287e-05
3.87306e-05
4.10536e-05
4.47586e-05
4.59688e-05
4.42903e-05
5.04741e-05
4.28376e-05
4.84636e-05
4.51286e-05
3.99675e-05
4.21894e-05
3.96271e-05
3.08133e-05
4.0503e-05
2.44371e-05
3.86536e-05
2.161e-05
3.66621e-05
2.6718e-05
3.69627e-05
3.88836e-05
3.95692e-05
4.55159e-05
4.66623e-05
4.36317e-05
4.86588e-05
4.0216e-05
4.70208e-05
4.25402e-05
3.74642e-05
4.10272e-05
3.81214e-05
2.70616e-05
3.95818e-05
2.0532e-05
3.86873e-05
2.03897e-05
3.86487e-05
2.72153e-05
3.71583e-05
3.95246e-05
3.86582e-05
4.50275e-05
4.42401e-05
4.12317e-05
5.0471e-05
3.9945e-05
4.88023e-05
4.32801e-05
3.71907e-05
4.24151e-05
3.88149e-05
2.71358e-05
4.22029e-05
2.13982e-05
4.14798e-05
2.08454e-05
4.02408e-05
2.72133e-05
3.79272e-05
4.12741e-05
3.86449e-05
4.71963e-05
4.55367e-05
4.14961e-05
4.9236e-05
3.51752e-05
4.73776e-05
4.14504e-05
3.25791e-05
4.20731e-05
3.74143e-05
2.27519e-05
4.21145e-05
1.66129e-05
4.17779e-05
1.72156e-05
4.03037e-05
2.45098e-05
3.53757e-05
4.10478e-05
3.4673e-05
4.57886e-05
4.29634e-05
3.66949e-05
5.09323e-05
3.5752e-05
5.0098e-05
4.16547e-05
3.3299e-05
4.4021e-05
3.78457e-05
2.21576e-05
4.54186e-05
1.63542e-05
4.53778e-05
1.71877e-05
4.34743e-05
2.49754e-05
3.77409e-05
4.31005e-05
3.57569e-05
4.91483e-05
4.3988e-05
3.82306e-05
4.98125e-05
2.8779e-05
4.9372e-05
3.92004e-05
2.60079e-05
4.46649e-05
3.62587e-05
1.53298e-05
4.57757e-05
9.4151e-06
4.57442e-05
1.08289e-05
4.26845e-05
1.90075e-05
3.28493e-05
4.21002e-05
2.91464e-05
4.75936e-05
4.01209e-05
3.08029e-05
5.24287e-05
2.93612e-05
5.26026e-05
3.94972e-05
2.63123e-05
4.72031e-05
3.62539e-05
1.50127e-05
4.91915e-05
9.02295e-06
4.94009e-05
1.07522e-05
4.63222e-05
1.91918e-05
3.62399e-05
4.51672e-05
3.01276e-05
5.151e-05
4.13921e-05
3.21422e-05
5.17943e-05
1.69314e-05
5.45045e-05
3.68258e-05
1.32494e-05
5.10058e-05
3.46259e-05
8.92324e-07
5.25993e-05
-4.29909e-06
5.2464e-05
-2.02667e-06
4.73091e-05
7.11724e-06
2.83893e-05
4.47572e-05
1.79785e-05
5.17348e-05
3.65435e-05
1.99404e-05
5.38536e-05
1.85847e-05
5.71934e-05
3.527e-05
1.47244e-05
5.33629e-05
3.28031e-05
2.28816e-06
5.45652e-05
-3.50278e-06
5.44371e-05
-1.07296e-06
4.94988e-05
7.9863e-06
3.25136e-05
4.6319e-05
1.96439e-05
5.49242e-05
3.59167e-05
2.21108e-05
5.71591e-05
-5.91526e-06
6.74985e-05
3.01903e-05
-1.40411e-05
6.7399e-05
2.93767e-05
-2.86326e-05
6.58423e-05
-3.14875e-05
6.4544e-05
-2.80977e-05
5.63869e-05
-1.83348e-05
2.03418e-05
5.06498e-05
-4.45034e-06
6.23197e-05
2.7997e-05
-2.57524e-06
-0.0134435
-0.012894
-0.0124442
-0.0121161
-0.0119237
-0.0118964
-0.0120508
-0.0123653
-0.0128291
-0.0134069
-0.0140628
-0.0147285
-0.0153222
-0.0157487
-0.015943
-0.015913
-0.0156716
-0.01524
-0.0146771
-0.0140556
0.00196549
0.00202207
0.00195544
0.00182116
0.00166455
0.00155004
0.00141467
0.00124048
0.00100596
0.000720537
0.000372838
3.41641e-06
-0.000310944
-0.000486
-0.000440962
-0.000127048
0.000352941
0.000888689
0.00138122
0.00175356
-0.00272592
-0.00241738
-0.00219944
-0.00206206
-0.00204568
-0.00215029
-0.00234397
-0.00258038
-0.00291186
-0.0033074
-0.00380738
-0.00433241
-0.00477929
-0.00502229
-0.00505354
-0.00487219
-0.0045103
-0.00403387
-0.00354515
-0.00310084
0.00337313
0.00345162
0.00347144
0.00347595
0.00345485
0.00341244
0.00328846
0.00313519
0.00285925
0.00252468
0.00200971
0.00145363
0.00102085
0.000880609
0.00112906
0.00157442
0.00212242
0.00261188
0.00298234
0.00323075
-0.000285218
-0.000125636
-5.36453e-05
-1.59273e-05
-7.50752e-05
-0.000113846
-0.000221061
-0.000331356
-0.00059416
-0.000941012
-0.00157828
-0.00229291
-0.00282906
-0.00304173
-0.002915
-0.00251898
-0.00195279
-0.00138249
-0.000896
-0.000529273
0.00246022
0.00258058
0.00263764
0.00268555
0.00266357
0.00263135
0.00250142
0.00236631
0.00205869
0.00167462
0.000922274
0.000189156
-0.000249703
-0.000202881
0.000198147
0.000751694
0.00128727
0.00172274
0.00205589
0.00229809
0.000282048
0.000340996
0.000349089
0.000352579
0.000321858
0.000331037
0.000264519
0.000205119
-4.67355e-05
-0.000418541
-0.00128073
-0.00211027
-0.00254211
-0.00246577
-0.0019769
-0.00134869
-0.000761207
-0.000321095
-1.39894e-05
0.000178221
0.00156826
0.00165777
0.00169836
0.0017357
0.00169963
0.00167045
0.00155584
0.00143714
0.00114547
0.000729704
-0.000182162
-0.000933595
-0.00115867
-0.000832811
-0.00026261
0.000278757
0.000735989
0.00105536
0.00129099
0.00145512
0.000360332
0.000383005
0.000373819
0.000378312
0.00036355
0.000379715
0.000331476
0.000285311
7.07211e-05
-0.000307868
-0.00125051
-0.00202267
-0.00215541
-0.00173541
-0.00109665
-0.000578421
-0.000173802
7.05764e-05
0.000231879
0.000319203
0.00095474
0.00100808
0.00102877
0.00104623
0.00101488
0.000989442
0.000901654
0.00080744
0.000580816
0.000208515
-0.000663946
-0.00126742
-0.00117342
-0.000728386
-0.000178711
0.000197955
0.000491441
0.000664364
0.000799534
0.000889015
0.000320608
0.00033332
0.000325014
0.000333871
0.000322788
0.000336416
0.000301659
0.000279114
0.000131008
-0.000134481
-0.000937272
-0.00154838
-0.00137445
-0.000948249
-0.000457826
-0.000165173
6.17894e-05
0.000174153
0.000259181
0.000299669
0.000577431
0.00060647
0.000614366
0.000621924
0.000596013
0.000576793
0.000513966
0.000454419
0.000308839
8.42319e-05
-0.000572551
-0.000900961
-0.000684635
-0.00031926
3.10587e-05
0.000206484
0.000356377
0.000426802
0.000498337
0.000541495
0.00025907
0.000269962
0.000266315
0.000276291
0.000267224
0.000281044
0.000259329
0.00027567
0.000203878
0.000169684
-0.00037132
-0.000785843
-0.000614449
-0.000389424
-0.000120674
-4.07526e-06
0.000117353
0.000165626
0.000219131
0.000242405
0.000357522
0.000373286
0.000374794
0.000378355
0.000356744
0.000343227
0.000297825
0.000268886
0.000194373
0.000143174
-0.000190663
-0.000320795
-0.000183956
-2.72427e-05
0.000133514
0.000177169
0.000250583
0.000273398
0.000315568
0.000336571
0.00020233
0.000212668
0.000212413
0.000221677
0.000214416
0.000228119
0.000216528
0.000258549
0.000251285
0.000421172
0.000204491
-0.000227422
-0.000193629
-0.000162908
-3.96425e-05
6.76059e-06
9.29362e-05
0.000123458
0.000167768
0.000186131
0.000232974
0.000242157
0.00024118
0.000242876
0.000224855
0.000214483
0.000178621
0.000162415
0.000117174
0.000184826
0.000270687
-3.22614e-05
-4.33591e-05
-2.79197e-05
6.76881e-05
8.76461e-05
0.000153139
0.000170739
0.00020523
0.000218542
0.00015814
0.000166936
0.000168
0.000175308
0.000169219
0.000179074
0.000170211
0.000196818
0.000177262
0.00023704
0.000130896
-8.89726e-05
-7.01977e-05
-9.37565e-05
-9.26779e-06
5.62594e-06
7.03868e-05
9.15995e-05
0.000128607
0.000143429
0.000163823
0.000169157
0.000167489
0.000168174
0.000153591
0.000144981
0.000117161
0.000101403
7.07002e-05
7.1357e-05
9.51809e-05
-7.53821e-06
2.84798e-05
1.78129e-05
7.59085e-05
7.40282e-05
0.000116283
0.00012207
0.000146373
0.000153779
0.000126827
0.000133221
0.000134313
0.000139262
0.000133836
0.000139536
0.00013284
0.000145179
0.00013195
0.000140241
8.38755e-05
-3.53211e-05
-1.90347e-05
-4.92249e-05
8.77113e-06
1.34422e-05
6.14053e-05
7.51305e-05
0.000103934
0.000114684
0.000124967
0.000127888
0.000126324
0.000126354
0.000114914
0.000107877
8.70561e-05
7.22703e-05
5.02167e-05
3.6122e-05
4.61477e-05
7.56978e-06
4.79725e-05
3.43274e-05
7.55199e-05
6.69937e-05
9.5831e-05
9.64253e-05
0.000113733
0.000117674
0.000105902
0.000109714
0.000110435
0.000113234
0.000107976
0.000110525
0.000104983
0.000108565
0.000101087
9.3836e-05
6.61956e-05
-6.36785e-06
6.13686e-06
-2.00004e-05
2.13445e-05
2.24838e-05
5.81473e-05
6.72814e-05
8.91182e-05
9.6219e-05
0.000102608
0.000103769
0.000102708
0.000102257
9.33816e-05
8.7962e-05
7.28774e-05
5.99761e-05
4.56396e-05
2.95074e-05
3.66836e-05
1.83415e-05
5.32748e-05
4.06006e-05
7.11998e-05
6.2383e-05
8.30752e-05
8.2296e-05
9.50205e-05
9.70037e-05
9.25933e-05
9.38935e-05
9.44698e-05
9.54593e-05
9.03003e-05
9.07183e-05
8.57137e-05
8.40816e-05
8.09559e-05
6.8704e-05
5.79677e-05
1.06702e-05
2.25949e-05
2.22337e-06
3.26679e-05
3.24043e-05
5.84088e-05
6.46634e-05
8.07319e-05
8.48865e-05
8.97722e-05
8.91087e-05
8.88332e-05
8.78231e-05
8.0597e-05
7.66037e-05
6.66537e-05
5.50014e-05
4.76016e-05
3.18615e-05
3.9451e-05
2.60346e-05
5.43099e-05
4.25223e-05
6.64442e-05
5.96757e-05
7.48524e-05
7.45591e-05
8.41089e-05
8.46512e-05
8.45229e-05
8.33684e-05
8.43425e-05
8.39539e-05
7.86653e-05
7.807e-05
7.34855e-05
6.83801e-05
6.87245e-05
5.48432e-05
5.41482e-05
2.17807e-05
3.5016e-05
1.92424e-05
4.23837e-05
4.18472e-05
6.00425e-05
6.4775e-05
7.62716e-05
7.79488e-05
8.24016e-05
7.97764e-05
8.05957e-05
7.87728e-05
7.25765e-05
7.02653e-05
6.32515e-05
5.26462e-05
5.16107e-05
3.51518e-05
4.53353e-05
3.08626e-05
5.45954e-05
4.36588e-05
6.26207e-05
5.85927e-05
6.96469e-05
7.06663e-05
7.76206e-05
7.7028e-05
7.95901e-05
7.64473e-05
7.84437e-05
7.64255e-05
7.13855e-05
7.05604e-05
6.67564e-05
5.87138e-05
6.23336e-05
4.71347e-05
5.37613e-05
2.94235e-05
4.45968e-05
3.0963e-05
4.98249e-05
4.95227e-05
6.18513e-05
6.62048e-05
7.36816e-05
7.37948e-05
7.84331e-05
7.29842e-05
7.58621e-05
7.31113e-05
6.70293e-05
6.62231e-05
6.12555e-05
5.05764e-05
5.50047e-05
3.73188e-05
5.06443e-05
3.40211e-05
5.56462e-05
4.44485e-05
6.05995e-05
5.90219e-05
6.5995e-05
6.9146e-05
7.39077e-05
7.19933e-05
7.75786e-05
7.13658e-05
7.5354e-05
7.15927e-05
6.60358e-05
6.70992e-05
6.28291e-05
5.2642e-05
6.11085e-05
4.22093e-05
5.6116e-05
3.32823e-05
5.18096e-05
3.88696e-05
5.4544e-05
5.5804e-05
6.28084e-05
6.81419e-05
7.20786e-05
7.04299e-05
7.58261e-05
6.78543e-05
7.3517e-05
6.88837e-05
6.29707e-05
6.40791e-05
6.02585e-05
4.74116e-05
5.79909e-05
3.71525e-05
5.53395e-05
3.51738e-05
5.77979e-05
4.43083e-05
5.94435e-05
5.99335e-05
6.34682e-05
6.91489e-05
7.10034e-05
6.84631e-05
7.7127e-05
6.61269e-05
7.42319e-05
6.91969e-05
6.16313e-05
6.51209e-05
6.10205e-05
4.80592e-05
6.21318e-05
3.86462e-05
5.95146e-05
3.48662e-05
5.73503e-05
4.27611e-05
5.78858e-05
6.06454e-05
6.17359e-05
7.02605e-05
7.16317e-05
6.73268e-05
7.51038e-05
6.25843e-05
7.26248e-05
6.601e-05
5.82766e-05
6.38486e-05
5.92227e-05
4.33535e-05
6.15566e-05
3.39318e-05
6.02133e-05
3.33974e-05
6.00117e-05
4.32422e-05
5.8078e-05
6.1655e-05
6.03844e-05
6.99145e-05
6.87397e-05
6.41786e-05
7.71464e-05
6.15644e-05
7.46644e-05
6.65156e-05
5.72833e-05
6.54787e-05
5.98178e-05
4.26544e-05
6.48546e-05
3.41798e-05
6.38843e-05
3.35366e-05
6.23206e-05
4.31157e-05
5.8973e-05
6.40224e-05
6.00183e-05
7.26053e-05
6.99716e-05
6.39099e-05
7.58458e-05
5.55018e-05
7.32646e-05
6.41754e-05
5.14307e-05
6.53283e-05
5.81043e-05
3.69753e-05
6.52891e-05
2.81261e-05
6.48778e-05
2.89612e-05
6.28367e-05
3.96835e-05
5.60003e-05
6.40367e-05
5.50659e-05
7.13099e-05
6.6819e-05
5.7942e-05
7.7856e-05
5.5169e-05
7.65567e-05
6.40676e-05
5.12443e-05
6.78437e-05
5.83738e-05
3.52087e-05
6.95213e-05
2.67633e-05
6.95533e-05
2.80956e-05
6.68711e-05
3.9567e-05
5.84221e-05
6.66716e-05
5.55517e-05
7.53872e-05
6.76195e-05
5.8802e-05
7.67464e-05
4.63903e-05
7.61523e-05
6.09724e-05
4.21001e-05
6.90592e-05
5.63772e-05
2.64315e-05
7.05894e-05
1.78761e-05
7.06854e-05
2.0004e-05
6.64577e-05
3.20358e-05
5.26827e-05
6.57956e-05
4.73297e-05
7.40149e-05
6.28583e-05
4.9634e-05
7.98666e-05
4.56504e-05
8.02908e-05
6.08558e-05
4.09544e-05
7.25791e-05
5.60488e-05
2.44177e-05
7.51653e-05
1.58251e-05
7.55751e-05
1.84788e-05
7.10631e-05
3.09672e-05
5.59875e-05
6.95596e-05
4.721e-05
7.88606e-05
6.37342e-05
4.98554e-05
7.93372e-05
3.05185e-05
8.30611e-05
5.7409e-05
2.50386e-05
7.76601e-05
5.38973e-05
7.15805e-06
7.97737e-05
-5.29642e-07
7.97738e-05
2.84204e-06
7.26367e-05
1.619e-05
4.67574e-05
6.93108e-05
3.24807e-05
7.95711e-05
5.76594e-05
3.50872e-05
8.19358e-05
3.06157e-05
8.69141e-05
5.51156e-05
2.4713e-05
8.13866e-05
5.14265e-05
6.53285e-06
8.29584e-05
-1.72024e-06
8.29397e-05
1.95385e-06
7.57414e-05
1.53307e-05
5.06845e-05
7.14791e-05
3.26906e-05
8.38192e-05
5.62528e-05
3.58461e-05
8.5578e-05
2.82808e-06
9.89609e-05
4.90523e-05
-7.83443e-06
9.78212e-05
4.73614e-05
-2.84694e-05
9.61377e-05
-3.34789e-05
9.47598e-05
-2.86963e-05
8.36467e-05
-1.45751e-05
3.67548e-05
7.63718e-05
5.40632e-06
9.2304e-05
4.67471e-05
7.98301e-06
-0.0148506
-0.0142246
-0.01371
-0.0133341
-0.0131198
-0.0131032
-0.013292
-0.013664
-0.0142054
-0.0148737
-0.0156247
-0.0163792
-0.0170441
-0.0175147
-0.0177218
-0.017674
-0.0173873
-0.0168903
-0.0162495
-0.0155451
0.00145639
0.0015646
0.00153461
0.00142104
0.00127417
0.00115118
0.000975349
0.000743478
0.000433148
5.99684e-05
-0.000381873
-0.000839793
-0.00122211
-0.00143215
-0.00137858
-0.00102058
-0.000471746
0.000147679
0.000726251
0.0011779
-0.00307662
-0.00271996
-0.0024792
-0.00233877
-0.0023472
-0.00248559
-0.00272718
-0.00302868
-0.00344454