/*--------------------------------*- C++ -*----------------------------------*\
| =========                 |                                                 |
| \\      /  F ield         | OpenFOAM: The Open Source CFD Toolbox           |
|  \\    /   O peration     | Version:  2.4.0                                 |
|   \\  /    A nd           | Web:      www.OpenFOAM.org                      |
|    \\/     M anipulation  |                                                 |
\*---------------------------------------------------------------------------*/
FoamFile
{
    version     2.0;
    format      ascii;
    class       volScalarField;
    location    "610";
    object      p;
}
// * * * * * * * * * * * * * * * * * * * * * * * * * * * * * * * * * * * * * //

dimensions      [0 2 -2 0 0 0 0];

internalField   nonuniform List<scalar> 
283312
(
-0.00626971
-0.00632794
-0.00656748
-0.00690835
-0.00726258
-0.00756098
-0.00779538
-0.00796029
-0.00808783
-0.00820127
-0.00832067
-0.00843254
-0.00850485
-0.00848184
-0.0083304
-0.0080577
-0.0076745
-0.00721784
-0.00676908
-0.00642659
0.00215303
0.00164905
0.00122071
0.000949321
0.000848034
0.000911871
0.00105349
0.00119348
0.00130363
0.00139135
0.00145893
0.00153809
0.00166688
0.00186792
0.00215449
0.00252556
0.00284276
0.00299602
0.00292134
0.00261715
-0.00230082
-0.00215172
-0.00193001
-0.00169104
-0.00149976
-0.00140378
-0.00138652
-0.00139419
-0.00144481
-0.00148825
-0.00152022
-0.00149981
-0.00142782
-0.00132602
-0.00127674
-0.00137922
-0.00161515
-0.00190581
-0.00216622
-0.00230978
0.00148386
0.00165529
0.00179833
0.00191273
0.00199555
0.00206395
0.00207048
0.00207638
0.00204248
0.00205231
0.00206869
0.00211614
0.00214701
0.00210889
0.00198644
0.00174987
0.00150249
0.00131963
0.00126414
0.00133652
-0.000744052
-0.000546421
-0.00043022
-0.000352495
-0.000349726
-0.000337598
-0.000349748
-0.000336793
-0.000367551
-0.000345693
-0.000356138
-0.000412023
-0.000585801
-0.000895956
-0.00131415
-0.00165028
-0.0017422
-0.00160443
-0.00132278
-0.001009
0.00120488
0.00131406
0.00137167
0.00141708
0.00143068
0.00143787
0.00140323
0.0013899
0.00132511
0.0013339
0.00127647
0.00115176
0.000879269
0.00052609
0.000265039
0.000194618
0.000321333
0.000562117
0.000825886
0.00104856
-0.000150003
-0.000110694
-0.000103951
-9.83305e-05
-0.000109732
-8.47627e-05
-8.52778e-05
-5.68149e-05
-8.85944e-05
-6.48332e-05
-0.000182342
-0.000455254
-0.000865878
-0.00126904
-0.00140012
-0.00124844
-0.000936749
-0.000624517
-0.000382331
-0.000229343
0.000764031
0.000812911
0.000836295
0.000861077
0.000849284
0.000845601
0.000807969
0.000787491
0.000718432
0.000707493
0.000546885
0.000231519
-0.000173218
-0.000362318
-0.00030943
-7.7882e-05
0.000206568
0.000433312
0.000595527
0.00069903
1.35965e-07
1.74525e-06
-9.23916e-06
-1.09286e-05
-1.23722e-05
9.55811e-06
1.14042e-05
3.13301e-05
3.49536e-06
6.60385e-06
-0.000188944
-0.000597228
-0.00100266
-0.00108573
-0.000870705
-0.000579555
-0.000314739
-0.000150325
-5.41788e-05
-1.20385e-05
0.000441911
0.0004664
0.000477124
0.000487554
0.000474686
0.00046627
0.000435821
0.000413478
0.000360091
0.000342692
0.000161458
-0.000210361
-0.000462721
-0.000448523
-0.00021577
9.75284e-06
0.000194599
0.000300042
0.000370883
0.000412522
4.42288e-05
4.21413e-05
3.32194e-05
3.50459e-05
3.42904e-05
4.93469e-05
4.97038e-05
6.60092e-05
4.88423e-05
7.34389e-05
-0.000104182
-0.00053499
-0.000716951
-0.000634382
-0.000390591
-0.000205287
-6.71551e-05
-4.11753e-06
3.28156e-05
4.34445e-05
0.000251183
0.0002629
0.000266681
0.000269803
0.000258619
0.000249847
0.000226243
0.000208637
0.000173233
0.000192172
5.50954e-05
-0.000227742
-0.000332356
-0.000226194
-4.54226e-05
6.89706e-05
0.000154732
0.000191213
0.000221408
0.000237338
5.52028e-05
5.51349e-05
5.06214e-05
5.40516e-05
5.28552e-05
6.41186e-05
6.37565e-05
8.73109e-05
8.39331e-05
0.000190268
7.55064e-05
-0.000272257
-0.000356333
-0.00029063
-0.000145007
-6.32321e-05
4.77727e-06
2.88357e-05
4.8824e-05
5.3398e-05
0.000145653
0.000150812
0.000150999
0.000151283
0.000141498
0.000133705
0.000114546
0.000102376
8.17164e-05
0.000139062
9.81018e-05
-5.16282e-05
-0.000108759
-5.34792e-05
3.36756e-05
7.06525e-05
0.000108288
0.000118098
0.000133056
0.000138846
5.29573e-05
5.46562e-05
5.31637e-05
5.67073e-05
5.54973e-05
6.44769e-05
6.47669e-05
9.32963e-05
0.000105262
0.000280154
0.000267024
-5.06573e-05
-0.000137032
-0.000139588
-7.50606e-05
-3.47141e-05
1.12359e-05
2.69888e-05
4.41455e-05
4.90262e-05
8.91153e-05
9.13092e-05
9.00915e-05
8.93e-05
8.09531e-05
7.40727e-05
5.76976e-05
4.70752e-05
2.90042e-05
8.60745e-05
0.0001959
3.70528e-05
-1.94115e-05
-1.94065e-05
2.15365e-05
3.49296e-05
6.34519e-05
7.02489e-05
8.19795e-05
8.50398e-05
4.63838e-05
4.85728e-05
4.84687e-05
5.12982e-05
5.0192e-05
5.61811e-05
5.59797e-05
7.23531e-05
6.84955e-05
0.000106984
6.64688e-05
-3.07777e-05
-4.01419e-05
-5.48688e-05
-2.08978e-05
-1.19114e-05
1.47779e-05
2.35166e-05
3.72802e-05
4.18356e-05
5.95426e-05
6.02861e-05
5.87809e-05
5.76847e-05
5.09588e-05
4.50842e-05
3.22842e-05
2.18686e-05
9.77249e-06
9.0926e-06
4.07775e-05
9.83062e-06
1.88951e-05
1.65487e-05
3.63674e-05
3.51586e-05
4.91107e-05
4.9225e-05
5.62362e-05
5.71448e-05
3.95862e-05
4.14062e-05
4.16893e-05
4.35377e-05
4.2434e-05
4.58665e-05
4.58141e-05
5.38741e-05
5.14648e-05
5.81528e-05
3.35676e-05
-1.54751e-05
-1.68326e-05
-3.05281e-05
-8.36449e-06
-4.55701e-06
1.45909e-05
2.06578e-05
3.16233e-05
3.5376e-05
4.3797e-05
4.38942e-05
4.26013e-05
4.15066e-05
3.63614e-05
3.16341e-05
2.21414e-05
1.32277e-05
4.42183e-06
-2.43855e-06
1.15551e-05
6.41662e-06
2.27478e-05
2.05355e-05
3.41701e-05
3.02795e-05
3.89024e-05
3.74294e-05
4.21043e-05
4.21977e-05
3.41209e-05
3.52205e-05
3.54735e-05
3.6424e-05
3.51141e-05
3.67185e-05
3.64945e-05
3.97674e-05
3.90722e-05
3.78451e-05
2.53899e-05
-5.23321e-06
-6.21064e-06
-1.71482e-05
-1.94429e-06
4.36332e-07
1.47174e-05
1.92825e-05
2.78204e-05
3.05379e-05
3.50632e-05
3.48385e-05
3.39451e-05
3.29664e-05
2.91547e-05
2.55992e-05
1.88306e-05
1.17233e-05
5.84275e-06
-9.17113e-07
6.80701e-06
6.97631e-06
2.18224e-05
1.97557e-05
2.98182e-05
2.60928e-05
3.20268e-05
3.05793e-05
3.39893e-05
3.38447e-05
3.02548e-05
3.05454e-05
3.0747e-05
3.09607e-05
2.94884e-05
2.98321e-05
2.91989e-05
2.96644e-05
3.0058e-05
2.61776e-05
2.10642e-05
7.85357e-07
1.06842e-06
-6.94517e-06
3.90289e-06
5.45e-06
1.58481e-05
1.92372e-05
2.56041e-05
2.73442e-05
3.01482e-05
2.95192e-05
2.90784e-05
2.81549e-05
2.52092e-05
2.2613e-05
1.84065e-05
1.24988e-05
9.31022e-06
3.23372e-06
8.50159e-06
8.23251e-06
2.00087e-05
1.76113e-05
2.5563e-05
2.28957e-05
2.72461e-05
2.6445e-05
2.91232e-05
2.8811e-05
2.77344e-05
2.7206e-05
2.75199e-05
2.72576e-05
2.55553e-05
2.52107e-05
2.42463e-05
2.28777e-05
2.39369e-05
1.92592e-05
1.82224e-05
4.7235e-06
6.75265e-06
9.89622e-07
9.01616e-06
1.00768e-05
1.72709e-05
1.98437e-05
2.44597e-05
2.52721e-05
2.72915e-05
2.61703e-05
2.61934e-05
2.51849e-05
2.28048e-05
2.12051e-05
1.83582e-05
1.3519e-05
1.28518e-05
6.62506e-06
1.15807e-05
9.01745e-06
1.84065e-05
1.58808e-05
2.20738e-05
2.06808e-05
2.39772e-05
2.39811e-05
2.60763e-05
2.562e-05
2.59869e-05
2.49973e-05
2.55821e-05
2.47119e-05
2.31236e-05
2.24063e-05
2.15317e-05
1.86809e-05
2.02996e-05
1.52306e-05
1.69628e-05
7.57569e-06
1.1137e-05
6.40938e-06
1.29335e-05
1.3654e-05
1.85877e-05
2.06957e-05
2.37135e-05
2.40459e-05
2.56854e-05
2.36321e-05
2.44619e-05
2.33673e-05
2.10903e-05
2.01357e-05
1.83248e-05
1.39512e-05
1.51969e-05
8.86354e-06
1.39797e-05
9.66639e-06
1.75656e-05
1.4641e-05
1.9907e-05
1.95016e-05
2.15964e-05
2.26073e-05
2.42777e-05
2.34726e-05
2.53571e-05
2.33725e-05
2.45187e-05
2.30608e-05
2.1242e-05
2.12585e-05
1.98684e-05
1.62314e-05
1.92493e-05
1.27242e-05
1.72015e-05
8.92771e-06
1.42939e-05
1.01882e-05
1.53471e-05
1.64818e-05
1.93823e-05
2.15415e-05
2.32067e-05
2.28777e-05
2.43532e-05
2.18371e-05
2.35261e-05
2.18108e-05
1.99119e-05
1.95133e-05
1.84013e-05
1.33818e-05
1.67228e-05
9.64464e-06
1.57958e-05
9.84231e-06
1.75829e-05
1.35191e-05
1.85186e-05
1.87834e-05
2.01228e-05
2.20015e-05
2.27504e-05
2.2093e-05
2.52461e-05
2.14806e-05
2.40907e-05
2.24893e-05
1.97617e-05
2.03839e-05
1.91916e-05
1.46755e-05
1.91728e-05
1.13477e-05
1.79592e-05
9.72165e-06
1.65635e-05
1.21726e-05
1.71581e-05
1.8536e-05
1.91125e-05
2.23192e-05
2.3308e-05
2.18295e-05
2.38644e-05
1.99621e-05
2.2989e-05
2.07937e-05
1.83053e-05
1.95055e-05
1.81948e-05
1.23462e-05
1.82123e-05
8.83791e-06
1.75626e-05
8.97704e-06
1.77308e-05
1.26209e-05
1.73312e-05
1.87802e-05
1.86726e-05
2.1781e-05
2.16487e-05
2.03574e-05
2.50881e-05
2.02222e-05
2.41766e-05
2.15141e-05
1.85511e-05
2.04117e-05
1.88143e-05
1.29414e-05
1.9837e-05
9.99953e-06
1.92115e-05
9.61824e-06
1.85485e-05
1.2753e-05
1.78825e-05
1.97563e-05
1.89121e-05
2.31181e-05
2.27036e-05
2.08911e-05
2.40706e-05
1.72671e-05
2.29559e-05
2.03818e-05
1.56968e-05
1.99658e-05
1.79253e-05
1.03423e-05
1.93954e-05
7.09798e-06
1.89719e-05
7.42081e-06
1.82882e-05
1.11237e-05
1.61225e-05
1.93844e-05
1.64094e-05
2.18542e-05
2.10099e-05
1.78053e-05
2.51529e-05
1.83458e-05
2.46811e-05
2.07504e-05
1.68883e-05
2.10919e-05
1.83923e-05
1.06945e-05
2.13677e-05
7.71492e-06
2.10965e-05
8.04776e-06
2.02283e-05
1.19522e-05
1.79761e-05
2.06223e-05
1.77103e-05
2.40065e-05
2.19809e-05
1.94769e-05
2.41561e-05
1.40265e-05
2.37933e-05
1.9236e-05
1.23527e-05
2.11387e-05
1.74369e-05
6.62524e-06
2.1107e-05
3.59157e-06
2.08149e-05
4.23942e-06
1.92915e-05
8.31625e-06
1.46169e-05
1.96849e-05
1.35661e-05
2.25458e-05
1.94876e-05
1.47197e-05
2.58201e-05
1.54952e-05
2.56573e-05
1.97798e-05
1.36872e-05
2.23954e-05
1.76892e-05
7.65557e-06
2.29513e-05
4.57547e-06
2.28188e-05
5.33107e-06
2.1478e-05
9.46292e-06
1.73872e-05
2.16347e-05
1.52229e-05
2.49634e-05
2.08107e-05
1.66265e-05
2.50888e-05
7.58461e-06
2.63958e-05
1.82533e-05
5.38926e-06
2.43558e-05
1.68446e-05
-1.25159e-06
2.46736e-05
-3.72883e-06
2.4328e-05
-2.66745e-06
2.17186e-05
1.89401e-06
1.20257e-05
2.10873e-05
7.47112e-06
2.46145e-05
1.7827e-05
8.76289e-06
2.62146e-05
1.0338e-05
2.75046e-05
1.76161e-05
8.19862e-06
2.5009e-05
1.59317e-05
1.69207e-06
2.51563e-05
-1.26899e-06
2.48628e-05
-2.00815e-07
2.26543e-05
4.18472e-06
1.55156e-05
2.18275e-05
1.01637e-05
2.62348e-05
1.79923e-05
1.17829e-05
2.82833e-05
-6.76461e-06
3.40719e-05
1.44177e-05
-1.19752e-05
3.4025e-05
1.38324e-05
-1.99368e-05
3.2384e-05
-2.0682e-05
3.1314e-05
-1.89725e-05
2.70517e-05
-1.40784e-05
6.7862e-06
2.45746e-05
-6.669e-06
3.08994e-05
1.29156e-05
-5.60545e-06
-0.0109868
-0.0105944
-0.0102886
-0.0100773
-0.00996093
-0.00994861
-0.0100697
-0.0103046
-0.0106475
-0.0110742
-0.0115624
-0.0120609
-0.0125066
-0.0128214
-0.0129548
-0.0129171
-0.0127163
-0.0123683
-0.011923
-0.0114434
0.00232622
0.00228032
0.00214923
0.00198784
0.00183384
0.00174401
0.00167498
0.00158985
0.00146777
0.00131345
0.00111144
0.0008884
0.000699386
0.000605157
0.000667443
0.000935752
0.00131238
0.00170486
0.00203611
0.00225043
-0.0023364
-0.00210107
-0.00191567
-0.00178002
-0.00173069
-0.00178672
-0.00191441
-0.00206432
-0.00228235
-0.00253848
-0.00286993
-0.00322094
-0.00352355
-0.00369321
-0.00372967
-0.00365451
-0.00346612
-0.00318806
-0.00288641
-0.00259711
0.00291028
0.00297366
0.00299787
0.0030153
0.00302025
0.00302017
0.00295353
0.00287541
0.00270878
0.0025159
0.00218812
0.00181915
0.00151271
0.00138235
0.00150992
0.00176952
0.00210799
0.00241335
0.0026477
0.00281063
-0.000458579
-0.000310893
-0.000237993
-0.000191027
-0.000228543
-0.00024432
-0.00030569
-0.000352594
-0.000508071
-0.000704288
-0.00112499
-0.00163085
-0.00205872
-0.00228685
-0.00231017
-0.00212761
-0.00177023
-0.0013623
-0.000981268
-0.000674091
0.00202441
0.00212603
0.00217662
0.00222238
0.00221865
0.00220853
0.00212567
0.0020541
0.00185853
0.00163443
0.00112051
0.000583567
0.000208265
0.00014836
0.00036391
0.000721942
0.00110019
0.00142774
0.00169151
0.0018896
6.06516e-05
0.000104663
0.00010877
0.000112966
9.06064e-05
0.000112617
8.22539e-05
7.50072e-05
-7.18686e-05
-0.000282444
-0.000891021
-0.00153955
-0.00194214
-0.00199607
-0.00169887
-0.00124498
-0.000786637
-0.00042966
-0.000177203
-2.09295e-05
0.00125595
0.00132609
0.00135883
0.00139282
0.00136831
0.00135443
0.00127738
0.00121142
0.00102324
0.000771386
0.000115619
-0.000489568
-0.000756641
-0.000571879
-0.00017267
0.000240288
0.00060165
0.000855754
0.00104164
0.00116892
0.000173768
0.000183596
0.000171163
0.000172265
0.000164773
0.000189047
0.000169169
0.000164376
4.11008e-05
-0.00018116
-0.00086375
-0.00150394
-0.00171869
-0.00145616
-0.000968693
-0.000552342
-0.000224433
-3.10404e-05
9.07474e-05
0.00015061
0.000743449
0.000783606
0.000799907
0.000815474
0.000792675
0.000777391
0.000717485
0.000662386
0.000518158
0.000290322
-0.000337115
-0.0008471
-0.000856221
-0.000556903
-0.000132861
0.000166549
0.00039858
0.0005305
0.000630948
0.000695512
0.000179019
0.000182782
0.000172526
0.000178233
0.000172869
0.00019119
0.000176547
0.000180538
9.87204e-05
-4.7024e-05
-0.000623427
-0.00115686
-0.00109761
-0.000794594
-0.00040746
-0.000171899
6.53267e-06
8.88848e-05
0.000147365
0.000170255
0.000436518
0.000457473
0.00046351
0.000469657
0.000450507
0.000437499
0.000393623
0.000357588
0.000265863
0.00013935
-0.000326241
-0.000619858
-0.000506719
-0.00023962
3.32986e-05
0.000170645
0.000283865
0.00033282
0.000382683
0.000411435
0.00015586
0.000160497
0.000155578
0.0001629
0.000158192
0.000173647
0.000164409
0.000190829
0.000156142
0.000180893
-0.000199738
-0.000575254
-0.000489151
-0.000327998
-0.000117497
-2.51223e-05
6.68778e-05
9.94992e-05
0.000135264
0.000147624
0.000262258
0.000272907
0.000273747
0.000276104
0.000259869
0.00024976
0.000216736
0.000198036
0.000150912
0.000142313
-8.04706e-05
-0.000198056
-0.000125537
-1.03196e-05
0.000111802
0.000143398
0.00019516
0.000207825
0.000235747
0.000248339
0.00012752
0.000133294
0.000132138
0.000139192
0.000135297
0.000148782
0.000144392
0.000185347
0.000191665
0.000365575
0.000228874
-0.000146372
-0.000154563
-0.000139835
-4.82543e-05
-1.03905e-05
5.47041e-05
7.59258e-05
0.000106756
0.000117687
0.000166163
0.000171878
0.000170705
0.0001714
0.000157758
0.000149357
0.000122329
0.000109803
7.80659e-05
0.000145085
0.000251639
8.32789e-06
-2.29437e-05
-1.50787e-05
5.42495e-05
6.77588e-05
0.000114967
0.000125813
0.00014914
0.000156848
0.000102666
0.000108156
0.000108636
0.00011426
0.000110954
0.000120336
0.00011654
0.000141313
0.000130456
0.000185717
0.000108641
-6.10596e-05
-5.5011e-05
-7.6297e-05
-1.48446e-05
-4.36404e-06
4.27439e-05
5.73103e-05
8.34138e-05
9.2905e-05
0.000114305
0.000117279
0.000115615
0.000115549
0.000104556
9.73604e-05
7.62704e-05
6.32559e-05
4.14075e-05
4.32985e-05
7.53006e-05
4.57335e-06
2.90999e-05
2.15192e-05
6.15648e-05
5.82065e-05
8.67183e-05
8.86092e-05
0.000104391
0.000108085
8.3801e-05
8.79588e-05
8.87518e-05
9.25721e-05
8.9562e-05
9.50942e-05
9.22664e-05
0.000104265
9.67807e-05
0.000106187
6.34068e-05
-2.57685e-05
-1.74722e-05
-4.13632e-05
2.9344e-07
3.54423e-06
3.81842e-05
4.77827e-05
6.82661e-05
7.5413e-05
8.58889e-05
8.73022e-05
8.58312e-05
8.53875e-05
7.68848e-05
7.09895e-05
5.52816e-05
4.32344e-05
2.7366e-05
1.71075e-05
3.1076e-05
8.91383e-06
3.95647e-05
3.0938e-05
5.91643e-05
5.14819e-05
7.03296e-05
6.89206e-05
7.98919e-05
8.14741e-05
7.0625e-05
7.31112e-05
7.37283e-05
7.59004e-05
7.28196e-05
7.55274e-05
7.30736e-05
7.75044e-05
7.37391e-05
7.00457e-05
4.88334e-05
-5.5943e-06
5.00318e-07
-1.95294e-05
9.78692e-06
1.08978e-05
3.66757e-05
4.3314e-05
5.89587e-05
6.37778e-05
6.9812e-05
7.01859e-05
6.92148e-05
6.85669e-05
6.21261e-05
5.76328e-05
4.63685e-05
3.61408e-05
2.57607e-05
1.41794e-05
2.27214e-05
1.40107e-05
4.07086e-05
3.28649e-05
5.37879e-05
4.64143e-05
5.97399e-05
5.78584e-05
6.58674e-05
6.64283e-05
6.19978e-05
6.27765e-05
6.32982e-05
6.40933e-05
6.09353e-05
6.17122e-05
5.92163e-05
5.91794e-05
5.81678e-05
5.01593e-05
4.1802e-05
6.1801e-06
1.242e-05
-2.85847e-06
1.84776e-05
1.86749e-05
3.74407e-05
4.21083e-05
5.365e-05
5.65014e-05
6.06708e-05
5.99193e-05
5.96157e-05
5.8701e-05
5.35856e-05
5.03073e-05
4.31161e-05
3.4111e-05
2.87465e-05
1.7615e-05
2.47566e-05
1.81922e-05
3.95124e-05
3.201e-05
4.84004e-05
4.28949e-05
5.26335e-05
5.15315e-05
5.75955e-05
5.74195e-05
5.66525e-05
5.57389e-05
5.65222e-05
5.63209e-05
5.29316e-05
5.27083e-05
5.01697e-05
4.71844e-05
4.82476e-05
3.88365e-05
3.79231e-05
1.37754e-05
2.15606e-05
1.00097e-05
2.60579e-05
2.5995e-05
3.90372e-05
4.25698e-05
5.08412e-05
5.19666e-05
5.54022e-05
5.34066e-05
5.39215e-05
5.25358e-05
4.82635e-05
4.63706e-05
4.14308e-05
3.3529e-05
3.2806e-05
2.1132e-05
2.9303e-05
2.07492e-05
3.82473e-05
3.11416e-05
4.40362e-05
4.07902e-05
4.79342e-05
4.80719e-05
5.25569e-05
5.18005e-05
5.32431e-05
5.10939e-05
5.25328e-05
5.11326e-05
4.79235e-05
4.7291e-05
4.51554e-05
3.97409e-05
4.27103e-05
3.23516e-05
3.67218e-05
1.90313e-05
2.86288e-05
1.88238e-05
3.18819e-05
3.18179e-05
4.06563e-05
4.37868e-05
4.9139e-05
4.92588e-05
5.25236e-05
4.8585e-05
5.06003e-05
4.86902e-05
4.45301e-05
4.37272e-05
4.04078e-05
3.2722e-05
3.58195e-05
2.3429e-05
3.31925e-05
2.24626e-05
3.79321e-05
3.04858e-05
4.14524e-05
4.00889e-05
4.45539e-05
4.64263e-05
4.96179e-05
4.80535e-05
5.1918e-05
4.76668e-05
5.04108e-05
4.77725e-05
4.41629e-05
4.48619e-05
4.21377e-05
3.51555e-05
4.13207e-05
2.82041e-05
3.78215e-05
2.15429e-05
3.38694e-05
2.48313e-05
3.55076e-05
3.65187e-05
4.15453e-05
4.5228e-05
4.80378e-05
4.69373e-05
5.04447e-05
4.50135e-05
4.89042e-05
4.56729e-05
4.18383e-05
4.22654e-05
3.99255e-05
3.07594e-05
3.81281e-05
2.37106e-05
3.64514e-05
2.29519e-05
3.8766e-05
2.95106e-05
3.98445e-05
3.99348e-05
4.23134e-05
4.59959e-05
4.72269e-05
4.55075e-05
5.16558e-05
4.39696e-05
4.96206e-05
4.62616e-05
4.10998e-05
4.33096e-05
4.07728e-05
3.18812e-05
4.16519e-05
2.54758e-05
3.97869e-05
2.26545e-05
3.78056e-05
2.78222e-05
3.8152e-05
4.00541e-05
4.0793e-05
4.67123e-05
4.78782e-05
4.48051e-05
4.98063e-05
4.13108e-05
4.81445e-05
4.36407e-05
3.85578e-05
4.21176e-05
3.92386e-05
2.80941e-05
4.07107e-05
2.15394e-05
3.9804e-05
2.14088e-05
3.97724e-05
2.82912e-05
3.83187e-05
4.06588e-05
3.98454e-05
4.61831e-05
4.54167e-05
4.23653e-05
5.1587e-05
4.10054e-05
4.98923e-05
4.43426e-05
3.82415e-05
4.34699e-05
3.98923e-05
2.81269e-05
4.33047e-05
2.23724e-05
4.25778e-05
2.18403e-05
4.13477e-05
2.82665e-05
3.90664e-05
4.23811e-05
3.98053e-05
4.83206e-05
4.66817e-05
4.25972e-05
5.03251e-05
3.6203e-05
4.84436e-05
4.24906e-05
3.35958e-05
4.31088e-05
3.84721e-05
2.3711e-05
4.32058e-05
1.75588e-05
4.28661e-05
1.81862e-05
4.13945e-05
2.55374e-05
3.64915e-05
4.21223e-05
3.58033e-05
4.68766e-05
4.40742e-05
3.7761e-05
5.20015e-05
3.67573e-05
5.11418e-05
4.26668e-05
3.42839e-05
4.50338e-05
3.88729e-05
2.30847e-05
4.64926e-05
1.72727e-05
4.64536e-05
1.81386e-05
4.45547e-05
2.59869e-05
3.88436e-05
4.41572e-05
3.68724e-05
5.02166e-05
4.50796e-05
3.92775e-05
5.08562e-05
2.97497e-05
5.03985e-05
4.01949e-05
2.69542e-05
4.56671e-05
3.72704e-05
1.62195e-05
4.68461e-05
1.03023e-05
4.6815e-05
1.17526e-05
4.37498e-05
1.99926e-05
3.39309e-05
4.31214e-05
3.02341e-05
4.86226e-05
4.11755e-05
3.18136e-05
5.34642e-05
3.03216e-05
5.3618e-05
4.0474e-05
2.72392e-05
4.81954e-05
3.72452e-05
1.58831e-05
5.02558e-05
9.89178e-06
5.04678e-05
1.16639e-05
4.73858e-05
2.01694e-05
3.7317e-05
4.61816e-05
3.12122e-05
5.25314e-05
4.24409e-05
3.31474e-05
5.28016e-05
1.78498e-05
5.55112e-05
3.77863e-05
1.41222e-05
5.20012e-05
3.56038e-05
1.7088e-06
5.36722e-05
-3.47154e-06
5.35344e-05
-1.14874e-06
4.83597e-05
8.06679e-06
2.94476e-05
4.57279e-05
1.90402e-05
5.27085e-05
3.75486e-05
2.09072e-05
5.48604e-05
1.95021e-05
5.81958e-05
3.6221e-05
1.55906e-05
5.43565e-05
3.37683e-05
3.09788e-06
5.56373e-05
-2.6843e-06
5.55068e-05
-2.00544e-07
5.05511e-05
8.93374e-06
3.35713e-05
4.72913e-05
2.07088e-05
5.58983e-05
3.69268e-05
2.30815e-05
5.81343e-05
-5.05596e-06
6.85116e-05
3.11231e-05
-1.32673e-05
6.84301e-05
3.03284e-05
-2.79152e-05
6.69529e-05
-3.07361e-05
6.56381e-05
-2.72755e-05
5.74359e-05
-1.74173e-05
2.13848e-05
5.15619e-05
-3.39048e-06
6.32257e-05
2.89525e-05
-1.63923e-06
-0.0135296
-0.0129807
-0.0125314
-0.0122038
-0.012012
-0.0119857
-0.012141
-0.0124565
-0.0129211
-0.0134992
-0.0141544
-0.0148182
-0.0154094
-0.0158336
-0.0160269
-0.0159972
-0.0157562
-0.0153251
-0.0147625
-0.0141413
0.00193441
0.0019913
0.0019251
0.00179072
0.00163347
0.00151838
0.00138223
0.00120741
0.000972669
0.000687774
0.000341674
-2.52591e-05
-0.000337006
-0.000510486
-0.000465349
-0.000152144
0.000325975
0.00085992
0.00135107
0.00172259
-0.00274636
-0.0024386
-0.00222232
-0.00208731
-0.00207328
-0.00218077
-0.00237763
-0.00261751
-0.00295215
-0.00334963
-0.0038493
-0.00437143
-0.00481341
-0.0050516
-0.00507939
-0.00489738
-0.00453533
-0.00405832
-0.00356791
-0.00312194
0.00338185
0.0034593
0.00347786
0.0034806
0.003458
0.00341393
0.00328827
0.00313282
0.00285454
0.00251836
0.00200372
0.00145078
0.00102378
0.000887785
0.00113744
0.0015835
0.00213135
0.00262092
0.00299159
0.00323987
-0.000285169
-0.000126152
-5.50903e-05
-1.88018e-05
-7.96593e-05
-0.000120791
-0.000230592
-0.000344145
-0.000611072
-0.000961817
-0.00160207
-0.00231548
-0.00284473
-0.00304784
-0.00291549
-0.00251676
-0.001951
-0.00138187
-0.000895901
-0.000529286
0.00247793
0.00259714
0.0026532
0.00269984
0.00267695
0.00264351
0.00251209
0.0023751
0.00206419
0.00167622
0.000918552
0.000183548
-0.000249162
-0.000194032
0.000213588
0.000771126
0.0013083
0.00174355
0.00207576
0.00231677
0.000290878
0.000348654
0.000355659
0.000357962
0.00032611
0.000334318
0.000266356
0.000205516
-5.07306e-05
-0.000428872
-0.0013056
-0.0021489
-0.00257547
-0.00248175
-0.00197889
-0.00134313
-0.000752257
-0.000310967
-3.79653e-06
0.000187806
0.00158485
0.00167346
0.00171331
0.00174986
0.00171285
0.00168292
0.00156687
0.00144677
0.00115075
0.000728893
-0.000200172
-0.000970968
-0.00120052
-0.000857804
-0.000266438
0.000288717
0.000752415
0.00107364
0.0013092
0.0014725
0.000370689
0.000392106
0.000381869
0.000385351
0.000369834
0.00038556
0.000336361
0.000289357
7.14536e-05
-0.000312699
-0.00126942
-0.0020586
-0.00219993
-0.00176817
-0.00110769
-0.000574981
-0.000163406
8.29724e-05
0.00024423
0.000330617
0.000967404
0.00102022
0.00104047
0.00105743
0.00102543
0.000999532
0.00091064
0.000815466
0.000585655
0.000209196
-0.00067461
-0.00129119
-0.00120095
-0.000747673
-0.000183039
0.000203773
0.000502616
0.00067738
0.000812925
0.000902075
0.000329503
0.000341328
0.000332262
0.000340397
0.000328758
0.000342057
0.000306593
0.000283509
0.000133288
-0.000135303
-0.000946323
-0.00156712
-0.00139595
-0.000962967
-0.000461243
-0.00016089
7.02696e-05
0.000184061
0.000269283
0.000309249
0.00058664
0.00061541
0.000623099
0.000630367
0.000604103
0.000584619
0.00052106
0.000460987
0.000313391
8.69959e-05
-0.000576041
-0.000910409
-0.000694918
-0.000325326
3.16353e-05
0.000211618
0.000364256
0.000435786
0.000507729
0.000550826
0.000266197
0.000276525
0.000272389
0.00028186
0.000272392
0.000285913
0.000263675
0.000279671
0.000206657
0.000171446
-0.00037401
-0.00079258
-0.000621592
-0.000393151
-0.000119437
5.50775e-07
0.000124083
0.000173165
0.000226889
0.000249908
0.000364326
0.000379947
0.000381372
0.00038477
0.000362987
0.000349317
0.00030345
0.000274243
0.000198535
0.000146872
-0.000189876
-0.00032242
-0.00018564
-2.69203e-05
0.00013644
0.000181883
0.000256543
0.00027991
0.000322374
0.000343389
0.000208008
0.000218
0.000217459
0.000226382
0.000218859
0.000232296
0.000220323
0.000262054
0.000254075
0.00042366
0.00020503
-0.000227919
-0.00019407
-0.000162122
-3.6675e-05
1.11399e-05
9.83504e-05
0.000129292
0.000173772
0.000192003
0.000238192
0.000247286
0.000246281
0.000247872
0.00022977
0.000219286
0.000183115
0.000166705
0.000120669
0.000188048
0.000272718
-3.08667e-05
-4.12284e-05
-2.51351e-05
7.11385e-05
9.17584e-05
0.000157831
0.000175713
0.000210411
0.000223743
0.00016274
0.000171325
0.000172239
0.00017932
0.000173078
0.000182713
0.000173584
0.000199915
0.000179852
0.000239168
0.000132107
-8.80828e-05
-6.91179e-05
-9.1857e-05
-6.22699e-06
9.34566e-06
7.47313e-05
9.62091e-05
0.000133362
0.000148118
0.000168
0.000173265
0.000171589
0.00017219
0.00015757
0.000148857
0.000120843
0.0001049
7.37258e-05
7.41031e-05
9.73959e-05
-5.63625e-06
3.07104e-05
2.03857e-05
7.89556e-05
7.74249e-05
0.000120077
0.000126052
0.000150516
0.000157934
0.00013064
0.000136902
0.000137925
0.000142724
0.000137221
0.000142753
0.000135893
0.000148008
0.000134462
0.000142454
8.56126e-05
-3.37915e-05
-1.73128e-05
-4.70612e-05
1.1557e-05
1.66518e-05
6.50186e-05
7.89074e-05
0.000107825
0.000118534
0.000128444
0.000131303
0.000129741
0.000129696
0.000118241
0.000111103
9.01676e-05
7.52091e-05
5.28914e-05
3.85508e-05
4.83437e-05
9.58304e-06
5.0187e-05
3.66962e-05
7.82279e-05
6.99272e-05
9.90489e-05
9.9766e-05
0.000117195
0.000121134
0.00010914
0.000112861
0.000113557
0.000116254
0.000110965
0.000113388
0.000107755
0.000111159
0.000103509
9.60459e-05
6.81761e-05
-4.55281e-06
8.11712e-06
-1.77938e-05
2.39372e-05
2.53215e-05
6.12522e-05
7.04808e-05
9.24034e-05
9.94697e-05
0.000105597
0.000106698
0.000105644
0.000105125
9.62485e-05
9.07338e-05
7.55901e-05
6.2532e-05
4.80603e-05
3.17206e-05
3.8804e-05
2.03349e-05
5.54219e-05
4.28242e-05
7.36742e-05
6.50026e-05
8.59038e-05
8.51994e-05
9.80131e-05
9.998e-05
9.54089e-05
9.66367e-05
9.72106e-05
9.81237e-05
9.29585e-05
9.32774e-05
8.82334e-05
8.64537e-05
8.32524e-05
7.08306e-05
6.00113e-05
1.25774e-05
2.46478e-05
4.38105e-06
3.50839e-05
3.49569e-05
6.11467e-05
6.74506e-05
8.35845e-05
8.77036e-05
9.24069e-05
9.16831e-05
9.14184e-05
9.03469e-05
8.31261e-05
7.90488e-05
6.90769e-05
5.7285e-05
4.98359e-05
3.39193e-05
4.14954e-05
2.79715e-05
5.63837e-05
4.46304e-05
6.87479e-05
6.20672e-05
7.74011e-05
7.71466e-05
8.67627e-05
8.72765e-05
8.70238e-05
8.58036e-05
8.67865e-05
8.63356e-05
8.10507e-05
8.03762e-05
7.57847e-05
7.05497e-05
7.08847e-05
5.68533e-05
5.61645e-05
2.36797e-05
3.70499e-05
2.13119e-05
4.46426e-05
4.41771e-05
6.2509e-05
6.72607e-05
7.88088e-05
8.04462e-05
8.47715e-05
8.20842e-05
8.29183e-05
8.10395e-05
7.48495e-05
7.24676e-05
6.54572e-05
5.4725e-05
5.37005e-05
3.70843e-05
4.731e-05
3.27338e-05
5.6599e-05
4.56655e-05
6.4789e-05
6.08067e-05
7.1983e-05
7.30142e-05
8.00198e-05
7.93889e-05
8.18547e-05
7.86461e-05
8.0658e-05
7.85846e-05
7.35489e-05
7.26604e-05
6.88697e-05
6.07066e-05
6.4366e-05
4.90235e-05
5.57142e-05
3.12666e-05
4.65732e-05
3.29342e-05
5.19494e-05
5.16766e-05
6.4113e-05
6.84645e-05
7.59839e-05
7.6052e-05
8.06018e-05
7.50866e-05
7.7984e-05
7.51819e-05
6.91019e-05
6.82401e-05
6.32921e-05
5.24926e-05
5.69789e-05
3.91421e-05
5.25544e-05
3.58234e-05
5.75841e-05
4.63634e-05
6.26556e-05
6.10918e-05
6.81647e-05
7.1307e-05
7.6111e-05
7.41504e-05
7.96645e-05
7.33818e-05
7.73911e-05
7.35785e-05
6.80197e-05
6.90361e-05
6.47908e-05
5.4485e-05
6.30327e-05
4.3985e-05
5.80002e-05
3.50526e-05
5.372e-05
4.07472e-05
5.65574e-05
5.78177e-05
6.49135e-05
7.02284e-05
7.42028e-05
7.25033e-05
7.78414e-05
6.9796e-05
7.5485e-05
7.08041e-05
6.48834e-05
6.59542e-05
6.21625e-05
4.91931e-05
5.9873e-05
3.8876e-05
5.71913e-05
3.69054e-05
5.9675e-05
4.61394e-05
6.14055e-05
6.18841e-05
6.55057e-05
7.11616e-05
7.3054e-05
7.04609e-05
7.90782e-05
6.8e-05
7.61338e-05
7.10501e-05
6.34701e-05
6.6932e-05
6.2861e-05
4.9776e-05
6.39709e-05
4.03211e-05
6.1339e-05
3.65625e-05
5.92004e-05
4.45551e-05
5.98096e-05
6.25467e-05
6.37204e-05
7.22123e-05
7.3619e-05
6.92581e-05
7.70025e-05
6.44004e-05
7.44763e-05
6.78143e-05
6.00584e-05
6.5617e-05
6.10225e-05
4.50203e-05
6.33693e-05
3.55637e-05
6.20165e-05
3.50588e-05
6.18356e-05
4.49973e-05
5.99624e-05
6.3506e-05
6.23172e-05
7.18078e-05
7.06698e-05
6.60501e-05
7.8997e-05
6.33278e-05
7.64663e-05
6.82658e-05
5.90038e-05
6.71987e-05
6.15644e-05
4.42643e-05
6.66333e-05
3.57658e-05
6.56639e-05
3.51636e-05
6.41215e-05
4.48379e-05
6.08267e-05
6.58331e-05
6.1911e-05
7.44512e-05
7.18533e-05
6.57308e-05
7.76558e-05
5.72164e-05
7.50303e-05
6.58916e-05
5.31013e-05
6.7021e-05
5.98226e-05
3.85397e-05
6.70544e-05
2.96726e-05
6.66454e-05
3.05546e-05
6.46169e-05
4.13704e-05
5.78223e-05
6.5803e-05
5.69167e-05
7.31049e-05
6.8652e-05
5.97118e-05
7.9634e-05
5.68467e-05
7.82891e-05
6.57433e-05
5.28674e-05
6.95054e-05
6.00508e-05
3.6727e-05
7.12657e-05
2.82705e-05
7.13059e-05
2.96598e-05
6.86367e-05
4.12294e-05
6.02241e-05
6.84097e-05
5.73782e-05
7.71497e-05
6.94205e-05
6.0539e-05
7.84882e-05
4.8019e-05
7.78593e-05
6.2622e-05
4.3669e-05
7.07069e-05
5.80326e-05
2.78984e-05
7.23307e-05
1.93403e-05
7.2433e-05
2.15313e-05
6.82049e-05
3.36626e-05
5.44571e-05
6.74872e-05
4.91188e-05
7.57251e-05
6.46095e-05
5.13206e-05
8.15919e-05
4.72582e-05
8.19801e-05
6.24787e-05
4.24907e-05
7.42137e-05
5.76762e-05
2.58527e-05
7.69008e-05
1.72602e-05
7.73191e-05
1.99859e-05
7.28067e-05
3.25801e-05
5.77531e-05
7.12362e-05
4.89905e-05
8.05535e-05
6.54706e-05
5.15273e-05
8.10248e-05
3.20695e-05
8.47371e-05
5.90085e-05
2.65022e-05
7.9299e-05
5.55061e-05
8.52137e-06
8.15217e-05
8.49839e-07
8.15234e-05
4.30345e-06
7.43649e-05
1.77646e-05
4.84984e-05
7.09319e-05
3.42292e-05
8.12028e-05
5.93387e-05
3.67067e-05
8.36217e-05
3.21627e-05
8.85876e-05
5.6704e-05
2.61642e-05
8.30292e-05
5.30219e-05
7.88375e-06
8.47129e-05
-3.54266e-07
8.46948e-05
3.40739e-06
7.74751e-05
1.6903e-05
5.24266e-05
7.30996e-05
3.44443e-05
8.5448e-05
5.79351e-05
3.74688e-05
8.72213e-05
4.29852e-06
0.000100642
5.06125e-05
-6.50166e-06
9.95064e-05
4.89357e-05
-2.72369e-05
9.79369e-05
-3.22007e-05
9.65417e-05
-2.73103e-05
8.53727e-05
-1.30469e-05
3.8474e-05
7.79159e-05
7.14362e-06
9.38474e-05
4.8357e-05
9.55389e-06
-0.0149495
-0.0143245
-0.0138107
-0.0134355
-0.0132217
-0.0132056
-0.0133948
-0.0137671
-0.0143086
-0.0149763
-0.0157256
-0.0164774
-0.0171393
-0.0176075
-0.0178139
-0.0177669
-0.0174813
-0.0169857
-0.0163463
-0.0156429
0.00141569
0.00152455
0.00149533
0.00138198
0.00123492
0.00111141
0.000935071
0.000702911
0.000392808
2.07324e-05
-0.000418839
-0.000873642
-0.00125304
-0.00146169
-0.00140889
-0.00105282
-0.000506951
0.000109766
0.000686425
0.00113713
-0.0031046
-0.00274847
-0.00250897
-0.00237052
-0.00238089
-0.002522
-0.00276665
-0.00307141
-0.00349002
-0.00398449