/*--------------------------------*- C++ -*----------------------------------*\
| =========                 |                                                 |
| \\      /  F ield         | OpenFOAM: The Open Source CFD Toolbox           |
|  \\    /   O peration     | Version:  2.4.0                                 |
|   \\  /    A nd           | Web:      www.OpenFOAM.org                      |
|    \\/     M anipulation  |                                                 |
\*---------------------------------------------------------------------------*/
FoamFile
{
    version     2.0;
    format      ascii;
    class       volScalarField;
    location    "100";
    object      epsilon;
}
// * * * * * * * * * * * * * * * * * * * * * * * * * * * * * * * * * * * * * //

dimensions      [0 2 -3 0 0 0 0];

internalField   nonuniform List<scalar> 
283312
(
3.93818e-05
3.73161e-05
3.5437e-05
3.43521e-05
3.42235e-05
3.4837e-05
3.58719e-05
3.70945e-05
3.83637e-05
3.9548e-05
4.0497e-05
4.10865e-05
4.12775e-05
4.11502e-05
4.08696e-05
4.0605e-05
4.04892e-05
4.05174e-05
4.04732e-05
3.99896e-05
2.7626e-05
3.00744e-05
3.3203e-05
3.6188e-05
3.85043e-05
4.00497e-05
4.09982e-05
4.15773e-05
4.18963e-05
4.19242e-05
4.15571e-05
4.0734e-05
3.94516e-05
3.77033e-05
3.54949e-05
3.29176e-05
3.02231e-05
2.78268e-05
2.62608e-05
2.60273e-05
3.37397e-05
3.56994e-05
3.72233e-05
3.827e-05
3.89335e-05
3.92999e-05
3.94809e-05
3.95712e-05
3.95981e-05
3.95255e-05
3.91392e-05
3.81559e-05
3.64538e-05
3.4173e-05
3.16581e-05
2.94664e-05
2.81135e-05
2.79511e-05
2.90796e-05
3.11613e-05
3.58067e-05
3.64023e-05
3.6864e-05
3.71335e-05
3.7256e-05
3.73256e-05
3.74224e-05
3.75711e-05
3.79235e-05
3.83186e-05
3.7637e-05
3.55744e-05
3.27879e-05
3.00594e-05
2.8416e-05
2.86889e-05
3.02585e-05
3.21167e-05
3.36328e-05
3.47634e-05
3.69935e-05
3.6596e-05
3.64248e-05
3.6365e-05
3.63775e-05
3.64344e-05
3.65452e-05
3.67249e-05
3.75041e-05
3.77039e-05
3.57791e-05
3.29616e-05
3.0645e-05
2.96156e-05
3.03676e-05
3.24274e-05
3.5032e-05
3.69166e-05
3.74703e-05
3.72039e-05
3.66946e-05
3.60929e-05
3.58421e-05
3.57539e-05
3.57557e-05
3.58111e-05
3.59285e-05
3.61319e-05
3.72631e-05
3.69473e-05
3.43217e-05
3.13886e-05
2.93668e-05
2.90793e-05
3.07934e-05
3.37924e-05
3.699e-05
3.86609e-05
3.84523e-05
3.74333e-05
3.63376e-05
3.56998e-05
3.5461e-05
3.54021e-05
3.54296e-05
3.54954e-05
3.56081e-05
3.58065e-05
3.69929e-05
3.627e-05
3.34175e-05
3.02563e-05
2.79518e-05
2.80782e-05
3.05787e-05
3.4658e-05
3.83928e-05
3.97246e-05
3.88229e-05
3.73085e-05
3.57592e-05
3.53383e-05
3.52038e-05
3.51796e-05
3.52067e-05
3.52634e-05
3.53568e-05
3.55068e-05
3.6169e-05
3.55235e-05
3.31459e-05
2.9448e-05
2.62021e-05
2.64564e-05
3.03773e-05
3.57684e-05
3.93598e-05
3.96561e-05
3.80983e-05
3.6565e-05
3.52317e-05
3.50742e-05
3.50394e-05
3.50507e-05
3.50847e-05
3.51374e-05
3.52126e-05
3.53375e-05
3.55539e-05
3.42238e-05
3.17833e-05
2.72686e-05
2.37336e-05
2.53465e-05
3.11012e-05
3.6556e-05
3.85774e-05
3.78486e-05
3.65026e-05
3.56112e-05
3.49876e-05
3.49554e-05
3.49557e-05
3.49708e-05
3.49968e-05
3.50385e-05
3.50969e-05
3.52041e-05
3.53713e-05
3.38324e-05
3.15584e-05
2.74199e-05
2.50527e-05
2.77203e-05
3.27257e-05
3.58754e-05
3.64322e-05
3.58902e-05
3.53598e-05
3.50863e-05
3.48994e-05
3.49004e-05
3.49092e-05
3.4925e-05
3.49467e-05
3.49801e-05
3.50242e-05
3.51115e-05
3.52396e-05
3.35579e-05
3.14673e-05
2.74317e-05
2.6079e-05
2.8899e-05
3.24265e-05
3.43475e-05
3.49185e-05
3.49741e-05
3.49359e-05
3.49085e-05
3.48675e-05
3.48726e-05
3.48803e-05
3.48921e-05
3.49082e-05
3.49334e-05
3.49678e-05
3.50369e-05
3.51505e-05
3.32671e-05
3.16463e-05
2.82109e-05
2.73223e-05
2.96434e-05
3.2256e-05
3.38175e-05
3.45081e-05
3.4761e-05
3.48401e-05
3.48613e-05
3.48497e-05
3.4855e-05
3.48617e-05
3.48716e-05
3.48842e-05
3.49029e-05
3.49288e-05
3.49787e-05
3.50705e-05
3.32979e-05
3.11332e-05
2.71149e-05
2.68616e-05
2.95373e-05
3.214e-05
3.37021e-05
3.44333e-05
3.47193e-05
3.48143e-05
3.48417e-05
3.48381e-05
3.48426e-05
3.48479e-05
3.48554e-05
3.4865e-05
3.48786e-05
3.48981e-05
3.49335e-05
3.50424e-05
3.36725e-05
3.25016e-05
2.87931e-05
2.81212e-05
3.02087e-05
3.24092e-05
3.37856e-05
3.44496e-05
3.47148e-05
3.48044e-05
3.48306e-05
3.48302e-05
3.48338e-05
3.4838e-05
3.48439e-05
3.48515e-05
3.48617e-05
3.48763e-05
3.49003e-05
3.49948e-05
3.32595e-05
3.06594e-05
2.71584e-05
2.76339e-05
3.02404e-05
3.25132e-05
3.38493e-05
3.44746e-05
3.47193e-05
3.48006e-05
3.48238e-05
3.48239e-05
3.48264e-05
3.48296e-05
3.48342e-05
3.48401e-05
3.48475e-05
3.48562e-05
3.48683e-05
3.48764e-05
3.16505e-05
2.5933e-05
2.37581e-05
2.60825e-05
2.9752e-05
3.24861e-05
3.39191e-05
3.45228e-05
3.47374e-05
3.48027e-05
3.48198e-05
3.48198e-05
3.48206e-05
3.48228e-05
3.48264e-05
3.48312e-05
3.48373e-05
3.48442e-05
3.48529e-05
3.4858e-05
3.45727e-05
3.43528e-05
3.44176e-05
3.45896e-05
3.47014e-05
3.47474e-05
3.47883e-05
3.4813e-05
3.48215e-05
3.4822e-05
3.48206e-05
3.48145e-05
3.48149e-05
3.48166e-05
3.48194e-05
3.48233e-05
3.48282e-05
3.48336e-05
3.48402e-05
3.4847e-05
3.48434e-05
3.48375e-05
3.48373e-05
3.48425e-05
3.48441e-05
3.48408e-05
3.48347e-05
3.48283e-05
3.48227e-05
3.48185e-05
3.48159e-05
3.48099e-05
3.48099e-05
3.48111e-05
3.48133e-05
3.48165e-05
3.48206e-05
3.48249e-05
3.48298e-05
3.48336e-05
3.48368e-05
3.48356e-05
3.48352e-05
3.48374e-05
3.48369e-05
3.48339e-05
3.48288e-05
3.48232e-05
3.48181e-05
3.48141e-05
3.48114e-05
3.48054e-05
3.48052e-05
3.4806e-05
3.48078e-05
3.48103e-05
3.48138e-05
3.48175e-05
3.48219e-05
3.48255e-05
3.48285e-05
3.48282e-05
3.48275e-05
3.48281e-05
3.48275e-05
3.48253e-05
3.48213e-05
3.48169e-05
3.48127e-05
3.48093e-05
3.48069e-05
3.48012e-05
3.48009e-05
3.48013e-05
3.48027e-05
3.48048e-05
3.48077e-05
3.48108e-05
3.48144e-05
3.48172e-05
3.48198e-05
3.48202e-05
3.48205e-05
3.48216e-05
3.48211e-05
3.48192e-05
3.48158e-05
3.4812e-05
3.48083e-05
3.48052e-05
3.48029e-05
3.47973e-05
3.47968e-05
3.4797e-05
3.47981e-05
3.47998e-05
3.48023e-05
3.4805e-05
3.48082e-05
3.48109e-05
3.48134e-05
3.48141e-05
3.48143e-05
3.48148e-05
3.48142e-05
3.48127e-05
3.481e-05
3.48068e-05
3.48037e-05
3.4801e-05
3.47989e-05
3.47936e-05
3.4793e-05
3.47931e-05
3.47939e-05
3.47953e-05
3.47973e-05
3.47997e-05
3.48024e-05
3.48047e-05
3.48069e-05
3.48079e-05
3.48086e-05
3.48093e-05
3.4809e-05
3.48076e-05
3.48053e-05
3.48026e-05
3.47998e-05
3.47972e-05
3.47952e-05
3.47902e-05
3.47895e-05
3.47895e-05
3.47901e-05
3.47912e-05
3.4793e-05
3.4795e-05
3.47974e-05
3.47996e-05
3.48017e-05
3.48027e-05
3.48034e-05
3.48039e-05
3.48035e-05
3.48025e-05
3.48006e-05
3.47983e-05
3.47958e-05
3.47936e-05
3.47918e-05
3.4787e-05
3.47863e-05
3.47862e-05
3.47866e-05
3.47875e-05
3.4789e-05
3.47907e-05
3.47929e-05
3.47948e-05
3.47967e-05
3.47978e-05
3.47987e-05
3.47993e-05
3.47991e-05
3.47982e-05
3.47966e-05
3.47945e-05
3.47924e-05
3.47903e-05
3.47886e-05
3.47841e-05
3.47834e-05
3.47831e-05
3.47834e-05
3.47841e-05
3.47854e-05
3.4787e-05
3.47889e-05
3.47906e-05
3.47924e-05
3.47935e-05
3.47944e-05
3.47949e-05
3.47948e-05
3.47941e-05
3.47927e-05
3.4791e-05
3.4789e-05
3.47872e-05
3.47856e-05
3.47814e-05
3.47807e-05
3.47804e-05
3.47805e-05
3.47811e-05
3.47822e-05
3.47835e-05
3.47852e-05
3.47868e-05
3.47884e-05
3.47896e-05
3.47905e-05
3.47911e-05
3.47911e-05
3.47905e-05
3.47893e-05
3.47878e-05
3.47861e-05
3.47844e-05
3.47829e-05
3.4779e-05
3.47783e-05
3.47779e-05
3.4778e-05
3.47784e-05
3.47793e-05
3.47805e-05
3.4782e-05
3.47835e-05
3.4785e-05
3.47861e-05
3.4787e-05
3.47876e-05
3.47876e-05
3.47872e-05
3.47862e-05
3.47849e-05
3.47833e-05
3.47818e-05
3.47804e-05
3.47768e-05
3.47761e-05
3.47757e-05
3.47756e-05
3.4776e-05
3.47768e-05
3.47778e-05
3.47792e-05
3.47805e-05
3.47819e-05
3.4783e-05
3.47839e-05
3.47845e-05
3.47846e-05
3.47843e-05
3.47834e-05
3.47823e-05
3.47809e-05
3.47795e-05
3.47782e-05
3.47748e-05
3.47741e-05
3.47737e-05
3.47736e-05
3.47739e-05
3.47745e-05
3.47754e-05
3.47767e-05
3.47779e-05
3.47792e-05
3.47803e-05
3.47811e-05
3.47817e-05
3.47819e-05
3.47816e-05
3.47809e-05
3.47799e-05
3.47787e-05
3.47774e-05
3.47762e-05
3.47731e-05
3.47724e-05
3.47719e-05
3.47717e-05
3.47719e-05
3.47725e-05
3.47733e-05
3.47744e-05
3.47756e-05
3.47768e-05
3.47778e-05
3.47787e-05
3.47793e-05
3.47795e-05
3.47793e-05
3.47787e-05
3.47778e-05
3.47767e-05
3.47755e-05
3.47744e-05
3.47715e-05
3.47708e-05
3.47704e-05
3.47702e-05
3.47703e-05
3.47708e-05
3.47715e-05
3.47725e-05
3.47736e-05
3.47747e-05
3.47757e-05
3.47766e-05
3.47772e-05
3.47774e-05
3.47773e-05
3.47768e-05
3.4776e-05
3.4775e-05
3.47738e-05
3.47728e-05
3.47702e-05
3.47695e-05
3.4769e-05
3.47687e-05
3.47688e-05
3.47692e-05
3.47699e-05
3.47708e-05
3.47718e-05
3.47729e-05
3.47738e-05
3.47747e-05
3.47753e-05
3.47756e-05
3.47755e-05
3.47751e-05
3.47743e-05
3.47734e-05
3.47724e-05
3.47714e-05
3.4769e-05
3.47683e-05
3.47678e-05
3.47676e-05
3.47676e-05
3.4768e-05
3.47685e-05
3.47694e-05
3.47703e-05
3.47714e-05
3.47723e-05
3.47731e-05
3.47737e-05
3.4774e-05
3.4774e-05
3.47736e-05
3.4773e-05
3.47721e-05
3.47711e-05
3.47702e-05
3.4768e-05
3.47673e-05
3.47668e-05
3.47665e-05
3.47665e-05
3.47668e-05
3.47673e-05
3.47681e-05
3.4769e-05
3.477e-05
3.47709e-05
3.47718e-05
3.47723e-05
3.47727e-05
3.47727e-05
3.47724e-05
3.47718e-05
3.4771e-05
3.477e-05
3.47691e-05
3.47672e-05
3.47666e-05
3.47661e-05
3.47657e-05
3.47657e-05
3.4766e-05
3.47664e-05
3.47672e-05
3.4768e-05
3.4769e-05
3.47699e-05
3.47707e-05
3.47713e-05
3.47716e-05
3.47717e-05
3.47714e-05
3.47709e-05
3.47701e-05
3.47692e-05
3.47684e-05
3.47665e-05
3.47659e-05
3.47654e-05
3.4765e-05
3.47649e-05
3.47652e-05
3.47656e-05
3.47663e-05
3.47672e-05
3.47681e-05
3.4769e-05
3.47698e-05
3.47704e-05
3.47707e-05
3.47708e-05
3.47706e-05
3.47701e-05
3.47693e-05
3.47685e-05
3.47676e-05
3.47661e-05
3.47655e-05
3.4765e-05
3.47645e-05
3.47645e-05
3.47647e-05
3.4765e-05
3.47658e-05
3.47666e-05
3.47675e-05
3.47684e-05
3.47692e-05
3.47698e-05
3.47702e-05
3.47703e-05
3.47701e-05
3.47696e-05
3.47689e-05
3.4768e-05
3.47672e-05
3.47658e-05
3.47652e-05
3.47647e-05
3.47643e-05
3.47642e-05
3.47644e-05
3.47647e-05
3.47655e-05
3.47662e-05
3.47672e-05
3.4768e-05
3.47688e-05
3.47694e-05
3.47698e-05
3.477e-05
3.47697e-05
3.47693e-05
3.47686e-05
3.47677e-05
3.4767e-05
3.47981e-05
3.48036e-05
3.47963e-05
3.47948e-05
3.48032e-05
3.47967e-05
3.47955e-05
3.48069e-05
3.47993e-05
3.48103e-05
3.48013e-05
3.48129e-05
3.4803e-05
3.48139e-05
3.48164e-05
3.48032e-05
3.48112e-05
3.48012e-05
3.47985e-05
3.48065e-05
3.9878e-05
3.78255e-05
3.61223e-05
3.52844e-05
3.53737e-05
3.61379e-05
3.72615e-05
3.85421e-05
3.98494e-05
4.10455e-05
4.19709e-05
4.25001e-05
4.26032e-05
4.23763e-05
4.20009e-05
4.16391e-05
4.1415e-05
4.13078e-05
4.10931e-05
4.04365e-05
2.85327e-05
3.13396e-05
3.46522e-05
3.76558e-05
3.99067e-05
4.13772e-05
4.22832e-05
4.28455e-05
4.31539e-05
4.31516e-05
4.27093e-05
4.17541e-05
4.02866e-05
3.83114e-05
3.58469e-05
3.30184e-05
3.01404e-05
2.77126e-05
2.63227e-05
2.6453e-05
3.49288e-05
3.69586e-05
3.8485e-05
3.95138e-05
4.01564e-05
4.0504e-05
4.06772e-05
4.07693e-05
4.07942e-05
4.067e-05
4.01157e-05
3.8824e-05
3.67272e-05
3.40663e-05
3.12801e-05
2.90104e-05
2.78378e-05
2.80787e-05
2.96828e-05
3.21417e-05
3.69297e-05
3.7592e-05
3.80644e-05
3.83248e-05
3.84398e-05
3.85118e-05
3.86154e-05
3.87728e-05
3.9119e-05
3.93822e-05
3.8315e-05
3.56557e-05
3.2245e-05
2.90631e-05
2.72943e-05
2.78131e-05
2.9899e-05
3.23298e-05
3.43093e-05
3.57384e-05
3.80157e-05
3.77101e-05
3.75749e-05
3.75299e-05
3.75514e-05
3.76144e-05
3.77328e-05
3.79192e-05
3.86817e-05
3.8624e-05
3.60639e-05
3.2404e-05
2.92664e-05
2.76167e-05
2.82406e-05
3.0817e-05
3.42516e-05
3.68937e-05
3.79913e-05
3.80603e-05
3.77144e-05
3.72016e-05
3.69887e-05
3.69167e-05
3.69283e-05
3.69899e-05
3.7114e-05
3.73217e-05
3.84235e-05
3.77395e-05
3.4324e-05
3.04024e-05
2.74366e-05
2.65887e-05
2.84603e-05
3.22654e-05
3.63799e-05
3.87632e-05
3.90282e-05
3.8301e-05
3.736e-05
3.68123e-05
3.6612e-05
3.65689e-05
3.66037e-05
3.66738e-05
3.67912e-05
3.69923e-05
3.81457e-05
3.70497e-05
3.34462e-05
2.92478e-05
2.59008e-05
2.55082e-05
2.83994e-05
3.33915e-05
3.79809e-05
3.99171e-05
3.94219e-05
3.81798e-05
3.68318e-05
3.6474e-05
3.63635e-05
3.63486e-05
3.63803e-05
3.64402e-05
3.65373e-05
3.66916e-05
3.73417e-05
3.64854e-05
3.36715e-05
2.9124e-05
2.49917e-05
2.48013e-05
2.90355e-05
3.50998e-05
3.92948e-05
4.00361e-05
3.88171e-05
3.75163e-05
3.63635e-05
3.62326e-05
3.62072e-05
3.62224e-05
3.62584e-05
3.63132e-05
3.63908e-05
3.652e-05
3.6743e-05
3.53571e-05
3.28371e-05
2.78623e-05
2.37785e-05
2.51208e-05
3.10134e-05
3.67395e-05
3.90319e-05
3.85688e-05
3.74409e-05
3.66826e-05
3.61475e-05
3.61224e-05
3.61255e-05
3.61422e-05
3.61696e-05
3.62131e-05
3.62733e-05
3.63843e-05
3.6557e-05
3.49907e-05
3.27563e-05
2.84022e-05
2.58118e-05
2.84222e-05
3.34501e-05
3.66518e-05
3.73171e-05
3.68996e-05
3.64574e-05
3.62285e-05
3.60673e-05
3.60698e-05
3.60796e-05
3.60963e-05
3.61189e-05
3.61536e-05
3.6199e-05
3.62894e-05
3.64211e-05
3.47254e-05
3.27096e-05
2.85077e-05
2.71253e-05
2.99982e-05
3.35283e-05
3.54455e-05
3.60365e-05
3.61167e-05
3.60938e-05
3.60735e-05
3.60366e-05
3.60421e-05
3.60503e-05
3.60629e-05
3.60798e-05
3.6106e-05
3.61415e-05
3.6213e-05
3.633e-05
3.44344e-05
3.29905e-05
2.94364e-05
2.85286e-05
3.08965e-05
3.3498e-05
3.50272e-05
3.5695e-05
3.59365e-05
3.60108e-05
3.60305e-05
3.6019e-05
3.60245e-05
3.60317e-05
3.6042e-05
3.60553e-05
3.60747e-05
3.61015e-05
3.6153e-05
3.62478e-05
3.44825e-05
3.24453e-05
2.82935e-05
2.80792e-05
3.08173e-05
3.34089e-05
3.4932e-05
3.56313e-05
3.58995e-05
3.59868e-05
3.60115e-05
3.60074e-05
3.60119e-05
3.60175e-05
3.60255e-05
3.60355e-05
3.60498e-05
3.607e-05
3.61065e-05
3.62199e-05
3.49015e-05
3.39505e-05
3.00839e-05
2.93886e-05
3.15021e-05
3.36801e-05
3.50152e-05
3.56472e-05
3.58949e-05
3.59768e-05
3.60004e-05
3.59993e-05
3.60029e-05
3.60074e-05
3.60137e-05
3.60217e-05
3.60323e-05
3.60474e-05
3.60722e-05
3.61709e-05
3.44578e-05
3.19522e-05
2.83502e-05
2.88797e-05
3.15275e-05
3.37789e-05
3.50751e-05
3.56702e-05
3.58985e-05
3.59727e-05
3.59935e-05
3.59928e-05
3.59954e-05
3.59988e-05
3.60037e-05
3.60099e-05
3.60177e-05
3.60267e-05
3.60393e-05
3.60472e-05
3.26634e-05
2.6742e-05
2.46651e-05
2.72203e-05
3.10096e-05
3.37428e-05
3.51393e-05
3.57144e-05
3.59144e-05
3.59738e-05
3.5989e-05
3.59884e-05
3.59894e-05
3.59918e-05
3.59957e-05
3.60007e-05
3.60071e-05
3.60143e-05
3.60232e-05
3.60284e-05
3.57323e-05
3.55148e-05
3.55907e-05
3.57672e-05
3.58765e-05
3.59214e-05
3.59609e-05
3.59836e-05
3.59907e-05
3.59906e-05
3.59891e-05
3.5983e-05
3.59835e-05
3.59854e-05
3.59884e-05
3.59925e-05
3.59976e-05
3.60032e-05
3.60101e-05
3.60171e-05
3.60132e-05
3.60071e-05
3.6007e-05
3.60124e-05
3.60137e-05
3.601e-05
3.60034e-05
3.59968e-05
3.5991e-05
3.59868e-05
3.59842e-05
3.59783e-05
3.59784e-05
3.59797e-05
3.59821e-05
3.59854e-05
3.59897e-05
3.59942e-05
3.59993e-05
3.60031e-05
3.60064e-05
3.60049e-05
3.60045e-05
3.60068e-05
3.6006e-05
3.60028e-05
3.59974e-05
3.59916e-05
3.59863e-05
3.59823e-05
3.59796e-05
3.59736e-05
3.59735e-05
3.59744e-05
3.59763e-05
3.59791e-05
3.59827e-05
3.59866e-05
3.59911e-05
3.59948e-05
3.59977e-05
3.59973e-05
3.59965e-05
3.59971e-05
3.59963e-05
3.59939e-05
3.59898e-05
3.59851e-05
3.59808e-05
3.59774e-05
3.5975e-05
3.59694e-05
3.5969e-05
3.59696e-05
3.59711e-05
3.59733e-05
3.59764e-05
3.59796e-05
3.59833e-05
3.59861e-05
3.59887e-05
3.59891e-05
3.59894e-05
3.59904e-05
3.59898e-05
3.59877e-05
3.59841e-05
3.59802e-05
3.59763e-05
3.59732e-05
3.59709e-05
3.59653e-05
3.59648e-05
3.59652e-05
3.59663e-05
3.59682e-05
3.59708e-05
3.59736e-05
3.59769e-05
3.59796e-05
3.59821e-05
3.59827e-05
3.5983e-05
3.59834e-05
3.59827e-05
3.5981e-05
3.59782e-05
3.59749e-05
3.59717e-05
3.59689e-05
3.59668e-05
3.59615e-05
3.5961e-05
3.59611e-05
3.5962e-05
3.59635e-05
3.59656e-05
3.59681e-05
3.59709e-05
3.59732e-05
3.59754e-05
3.59764e-05
3.59771e-05
3.59777e-05
3.59773e-05
3.59758e-05
3.59734e-05
3.59705e-05
3.59676e-05
3.59651e-05
3.59631e-05
3.5958e-05
3.59574e-05
3.59574e-05
3.5958e-05
3.59592e-05
3.59611e-05
3.59632e-05
3.59657e-05
3.59679e-05
3.597e-05
3.5971e-05
3.59717e-05
3.59721e-05
3.59717e-05
3.59706e-05
3.59686e-05
3.59661e-05
3.59636e-05
3.59613e-05
3.59595e-05
3.59548e-05
3.59541e-05
3.59539e-05
3.59544e-05
3.59554e-05
3.5957e-05
3.59588e-05
3.5961e-05
3.59629e-05
3.59649e-05
3.5966e-05
3.59668e-05
3.59674e-05
3.59672e-05
3.59662e-05
3.59644e-05
3.59623e-05
3.59601e-05
3.5958e-05
3.59562e-05
3.59518e-05
3.5951e-05
3.59508e-05
3.59511e-05
3.59519e-05
3.59533e-05
3.59549e-05
3.59568e-05
3.59586e-05
3.59604e-05
3.59615e-05
3.59624e-05
3.59629e-05
3.59627e-05
3.59619e-05
3.59605e-05
3.59586e-05
3.59567e-05
3.59548e-05
3.59532e-05
3.5949e-05
3.59483e-05
3.5948e-05
3.59482e-05
3.59488e-05
3.59499e-05
3.59513e-05
3.59531e-05
3.59547e-05
3.59564e-05
3.59575e-05
3.59584e-05
3.59589e-05
3.59589e-05
3.59583e-05
3.5957e-05
3.59554e-05
3.59536e-05
3.59519e-05
3.59504e-05
3.59465e-05
3.59458e-05
3.59454e-05
3.59455e-05
3.5946e-05
3.5947e-05
3.59482e-05
3.59498e-05
3.59512e-05
3.59528e-05
3.59539e-05
3.59548e-05
3.59553e-05
3.59553e-05
3.59548e-05
3.59538e-05
3.59524e-05
3.59508e-05
3.59493e-05
3.59479e-05
3.59442e-05
3.59435e-05
3.59431e-05
3.59431e-05
3.59435e-05
3.59443e-05
3.59454e-05
3.59468e-05
3.59482e-05
3.59496e-05
3.59507e-05
3.59516e-05
3.59522e-05
3.59522e-05
3.59518e-05
3.59509e-05
3.59497e-05
3.59483e-05
3.59469e-05
3.59455e-05
3.59422e-05
3.59415e-05
3.59411e-05
3.5941e-05
3.59413e-05
3.5942e-05
3.59429e-05
3.59442e-05
3.59454e-05
3.59468e-05
3.59479e-05
3.59487e-05
3.59493e-05
3.59494e-05
3.59491e-05
3.59484e-05
3.59473e-05
3.5946e-05
3.59447e-05
3.59435e-05
3.59404e-05
3.59397e-05
3.59392e-05
3.59391e-05
3.59393e-05
3.59399e-05
3.59407e-05
3.59419e-05
3.5943e-05
3.59443e-05
3.59453e-05
3.59462e-05
3.59468e-05
3.5947e-05
3.59468e-05
3.59461e-05
3.59452e-05
3.5944e-05
3.59428e-05
3.59416e-05
3.59388e-05
3.59381e-05
3.59376e-05
3.59374e-05
3.59376e-05
3.59381e-05
3.59388e-05
3.59399e-05
3.5941e-05
3.59422e-05
3.59432e-05
3.5944e-05
3.59446e-05
3.59448e-05
3.59447e-05
3.59441e-05
3.59433e-05
3.59422e-05
3.59411e-05
3.594e-05
3.59374e-05
3.59367e-05
3.59362e-05
3.5936e-05
3.59361e-05
3.59365e-05
3.59372e-05
3.59381e-05
3.59391e-05
3.59403e-05
3.59412e-05
3.59421e-05
3.59427e-05
3.59429e-05
3.59428e-05
3.59424e-05
3.59416e-05
3.59406e-05
3.59396e-05
3.59385e-05
3.59362e-05
3.59355e-05
3.5935e-05
3.59348e-05
3.59348e-05
3.59352e-05
3.59358e-05
3.59367e-05
3.59376e-05
3.59387e-05
3.59396e-05
3.59405e-05
3.59411e-05
3.59414e-05
3.59413e-05
3.59409e-05
3.59402e-05
3.59393e-05
3.59383e-05
3.59373e-05
3.59352e-05
3.59345e-05
3.5934e-05
3.59337e-05
3.59337e-05
3.5934e-05
3.59345e-05
3.59354e-05
3.59363e-05
3.59374e-05
3.59382e-05
3.59391e-05
3.59396e-05
3.594e-05
3.594e-05
3.59396e-05
3.5939e-05
3.59382e-05
3.59372e-05
3.59363e-05
3.59344e-05
3.59337e-05
3.59332e-05
3.59328e-05
3.59328e-05
3.59331e-05
3.59336e-05
3.59344e-05
3.59353e-05
3.59363e-05
3.59371e-05
3.5938e-05
3.59386e-05
3.59389e-05
3.5939e-05
3.59386e-05
3.59381e-05
3.59373e-05
3.59363e-05
3.59355e-05
3.59336e-05
3.5933e-05
3.59325e-05
3.59321e-05
3.59321e-05
3.59323e-05
3.59327e-05
3.59335e-05
3.59344e-05
3.59354e-05
3.59362e-05
3.5937e-05
3.59376e-05
3.5938e-05
3.5938e-05
3.59377e-05
3.59372e-05
3.59365e-05
3.59356e-05
3.59347e-05
3.59332e-05
3.59326e-05
3.5932e-05
3.59316e-05
3.59316e-05
3.59318e-05
3.59322e-05
3.5933e-05
3.59338e-05
3.59348e-05
3.59356e-05
3.59364e-05
3.5937e-05
3.59374e-05
3.59375e-05
3.59372e-05
3.59368e-05
3.5936e-05
3.59351e-05
3.59343e-05
3.5933e-05
3.59323e-05
3.59317e-05
3.59313e-05
3.59313e-05
3.59315e-05
3.59319e-05
3.59326e-05
3.59334e-05
3.59344e-05
3.59352e-05
3.5936e-05
3.59366e-05
3.5937e-05
3.59371e-05
3.59368e-05
3.59364e-05
3.59357e-05
3.59348e-05
3.5934e-05
3.5965e-05
3.59701e-05
3.59631e-05
3.59618e-05
3.59698e-05
3.59636e-05
3.59626e-05
3.59735e-05
3.59662e-05
3.59769e-05
3.59683e-05
3.59795e-05
3.597e-05
3.59804e-05
3.59826e-05
3.597e-05
3.59776e-05
3.5968e-05
3.59656e-05
3.59729e-05
4.02733e-05
3.82894e-05
3.68123e-05
3.62484e-05
3.65652e-05
3.74813e-05
3.86991e-05
4.00439e-05
4.13915e-05
4.25968e-05
4.34919e-05
4.39511e-05
4.39545e-05
4.36137e-05
4.31219e-05
4.26345e-05
4.22663e-05
4.19844e-05
4.15696e-05
4.07375e-05
2.95556e-05
3.27078e-05
3.61757e-05
3.9178e-05
4.13598e-05
4.27635e-05
4.36324e-05
4.4179e-05
4.4475e-05
4.44374e-05
4.39098e-05
4.28071e-05
4.11346e-05
3.89086e-05
3.61663e-05
3.30726e-05
3.00197e-05
2.75958e-05
2.64344e-05
2.69765e-05
3.61932e-05
3.82831e-05
3.98082e-05
4.08174e-05
4.14371e-05
4.17659e-05
4.1932e-05
4.20268e-05
4.20498e-05
4.18686e-05
4.11336e-05
3.95185e-05
3.70159e-05
3.39713e-05
3.09188e-05
2.85962e-05
2.76396e-05
2.83129e-05
3.03982e-05
3.3219e-05
3.8134e-05
3.88493e-05
3.93257e-05
3.95745e-05
3.96824e-05
3.97569e-05
3.98678e-05
4.00346e-05
4.03745e-05
4.04995e-05
3.90424e-05
3.57951e-05
3.17888e-05
2.82009e-05
2.63606e-05
2.71572e-05
2.97549e-05
3.27249e-05
3.51258e-05
3.68186e-05
3.91176e-05
3.88903e-05
3.87861e-05
3.8754e-05
3.87844e-05
3.88534e-05
3.89796e-05
3.91731e-05
3.99193e-05
3.9603e-05
3.64212e-05
3.19548e-05
2.80688e-05
2.58996e-05
2.64911e-05
2.96074e-05
3.38072e-05
3.7114e-05
3.86751e-05
3.90259e-05
3.88101e-05
3.83758e-05
3.81968e-05
3.81394e-05
3.81602e-05
3.82279e-05
3.83589e-05
3.8571e-05
3.9644e-05
3.85964e-05
3.44171e-05
2.95698e-05
2.57865e-05
2.45217e-05
2.66332e-05
3.12015e-05
3.61182e-05
3.90981e-05
3.97518e-05
3.92683e-05
3.84573e-05
3.79899e-05
3.78241e-05
3.77951e-05
3.78368e-05
3.79109e-05
3.80333e-05
3.82371e-05
3.93579e-05
3.78924e-05
3.35644e-05
2.83963e-05
2.41746e-05
2.34507e-05
2.67931e-05
3.25988e-05
3.79075e-05
4.03261e-05
4.01577e-05
3.91461e-05
3.79745e-05
3.76725e-05
3.75833e-05
3.75767e-05
3.76128e-05
3.76759e-05
3.77767e-05
3.79356e-05
3.85733e-05
3.75036e-05
3.42708e-05
2.89138e-05
2.40174e-05
2.35529e-05
2.81544e-05
3.4821e-05
3.95043e-05
4.05917e-05
3.96522e-05
3.85526e-05
3.75584e-05
3.74509e-05
3.7434e-05
3.74526e-05
3.74907e-05
3.75477e-05
3.76277e-05
3.77614e-05
3.79913e-05
3.65531e-05
3.39636e-05
2.8533e-05
2.39492e-05
2.51294e-05
3.12058e-05
3.71616e-05
3.96557e-05
3.94066e-05
3.84663e-05
3.78247e-05
3.7367e-05
3.73481e-05
3.73538e-05
3.73721e-05
3.7401e-05
3.74463e-05
3.75084e-05
3.76233e-05
3.78018e-05
3.6217e-05
3.40434e-05
2.94677e-05
2.66734e-05
2.92673e-05
3.43229e-05
3.75526e-05
3.83001e-05
3.79882e-05
3.76227e-05
3.74328e-05
3.72937e-05
3.72975e-05
3.73084e-05
3.7326e-05
3.73496e-05
3.73857e-05
3.74324e-05
3.7526e-05
3.76615e-05
3.59641e-05
3.40468e-05
2.96681e-05
2.82601e-05
3.1191e-05
3.47169e-05
3.66199e-05
3.72226e-05
3.73221e-05
3.73119e-05
3.72974e-05
3.72639e-05
3.72699e-05
3.72788e-05
3.72922e-05
3.73098e-05
3.73371e-05
3.73738e-05
3.74477e-05
3.75683e-05
3.56749e-05
3.44445e-05
3.07555e-05
2.98206e-05
3.22278e-05
3.48087e-05
3.62994e-05
3.69414e-05
3.71705e-05
3.72398e-05
3.72579e-05
3.72465e-05
3.72523e-05
3.72599e-05
3.72709e-05
3.72848e-05
3.7305e-05
3.73326e-05
3.73859e-05
3.74837e-05
3.57427e-05
3.38633e-05
2.95616e-05
2.93795e-05
3.2171e-05
3.47424e-05
3.62213e-05
3.68872e-05
3.71375e-05
3.72173e-05
3.72394e-05
3.72348e-05
3.72395e-05
3.72455e-05
3.72539e-05
3.72645e-05
3.72794e-05
3.73003e-05
3.7338e-05
3.7456e-05
3.62114e-05
3.55188e-05
3.14703e-05
3.07393e-05
3.28685e-05
3.50145e-05
3.63038e-05
3.69026e-05
3.71327e-05
3.72072e-05
3.72283e-05
3.72266e-05
3.72304e-05
3.72352e-05
3.72419e-05
3.72502e-05
3.72613e-05
3.7277e-05
3.73026e-05
3.74057e-05
3.57341e-05
3.33485e-05
2.96305e-05
3.02069e-05
3.28862e-05
3.51075e-05
3.63598e-05
3.69234e-05
3.71354e-05
3.72027e-05
3.72213e-05
3.722e-05
3.72226e-05
3.72263e-05
3.72315e-05
3.72381e-05
3.72462e-05
3.72556e-05
3.72686e-05
3.72763e-05
3.37313e-05
2.76023e-05
2.5638e-05
2.8433e-05
3.23364e-05
3.50612e-05
3.64177e-05
3.69636e-05
3.71492e-05
3.72031e-05
3.72165e-05
3.72152e-05
3.72164e-05
3.72191e-05
3.72232e-05
3.72285e-05
3.72352e-05
3.72427e-05
3.72519e-05
3.72571e-05
3.69506e-05
3.67361e-05
3.68233e-05
3.70036e-05
3.71099e-05
3.71538e-05
3.71916e-05
3.72122e-05
3.7218e-05
3.72174e-05
3.72158e-05
3.72097e-05
3.72104e-05
3.72124e-05
3.72157e-05
3.722e-05
3.72254e-05
3.72312e-05
3.72383e-05
3.72454e-05
3.72412e-05
3.72351e-05
3.72351e-05
3.72405e-05
3.72415e-05
3.72373e-05
3.72304e-05
3.72234e-05
3.72176e-05
3.72133e-05
3.72107e-05
3.72048e-05
3.72051e-05
3.72066e-05
3.72092e-05
3.72127e-05
3.72172e-05
3.72219e-05
3.72271e-05
3.72309e-05
3.72342e-05
3.72325e-05
3.72321e-05
3.72344e-05
3.72334e-05
3.72299e-05
3.72242e-05
3.72181e-05
3.72128e-05
3.72087e-05
3.72061e-05
3.72001e-05
3.72001e-05
3.72011e-05
3.72032e-05
3.72061e-05
3.72099e-05
3.72139e-05
3.72186e-05
3.72223e-05
3.72252e-05
3.72246e-05
3.72238e-05
3.72244e-05
3.72235e-05
3.72208e-05
3.72164e-05
3.72116e-05
3.72072e-05
3.72037e-05
3.72014e-05
3.71957e-05
3.71955e-05
3.71961e-05
3.71978e-05
3.72001e-05
3.72033e-05
3.72067e-05
3.72105e-05
3.72133e-05
3.7216e-05
3.72162e-05
3.72165e-05
3.72175e-05
3.72167e-05
3.72144e-05
3.72107e-05
3.72065e-05
3.72026e-05
3.71994e-05
3.71971e-05
3.71915e-05
3.71911e-05
3.71915e-05
3.71928e-05
3.71948e-05
3.71975e-05
3.72004e-05
3.72038e-05
3.72066e-05
3.72091e-05
3.72097e-05
3.72098e-05
3.72102e-05
3.72094e-05
3.72076e-05
3.72046e-05
3.72012e-05
3.71978e-05
3.7195e-05
3.71929e-05
3.71877e-05
3.71871e-05
3.71873e-05
3.71883e-05
3.71899e-05
3.71922e-05
3.71947e-05
3.71976e-05
3.72e-05
3.72022e-05
3.72031e-05
3.72038e-05
3.72044e-05
3.72039e-05
3.72023e-05
3.71997e-05
3.71967e-05
3.71937e-05
3.71911e-05
3.71891e-05
3.7184e-05
3.71834e-05
3.71835e-05
3.71842e-05
3.71855e-05
3.71875e-05
3.71897e-05
3.71923e-05
3.71945e-05
3.71966e-05
3.71976e-05
3.71982e-05
3.71986e-05
3.71981e-05
3.71969e-05
3.71947e-05
3.71922e-05
3.71896e-05
3.71873e-05
3.71854e-05
3.71807e-05
3.718e-05
3.71799e-05
3.71804e-05
3.71815e-05
3.71832e-05
3.71851e-05
3.71873e-05
3.71893e-05
3.71913e-05
3.71924e-05
3.71932e-05
3.71937e-05
3.71934e-05
3.71924e-05
3.71905e-05
3.71883e-05
3.7186e-05
3.71838e-05
3.71821e-05
3.71776e-05
3.71769e-05
3.71767e-05
3.71771e-05
3.71779e-05
3.71793e-05
3.7181e-05
3.71831e-05
3.71849e-05
3.71867e-05
3.71878e-05
3.71886e-05
3.71891e-05
3.71889e-05
3.7188e-05
3.71864e-05
3.71845e-05
3.71825e-05
3.71806e-05
3.71789e-05
3.71748e-05
3.7174e-05
3.71738e-05
3.7174e-05
3.71747e-05
3.71759e-05
3.71773e-05
3.71791e-05
3.71808e-05
3.71825e-05
3.71836e-05
3.71845e-05
3.7185e-05
3.71849e-05
3.71842e-05
3.71829e-05
3.71812e-05
3.71794e-05
3.71776e-05
3.71761e-05
3.71722e-05
3.71714e-05
3.71711e-05
3.71712e-05
3.71718e-05
3.71728e-05
3.71741e-05
3.71757e-05
3.71772e-05
3.71788e-05
3.71799e-05
3.71808e-05
3.71813e-05
3.71813e-05
3.71807e-05
3.71796e-05
3.71781e-05
3.71765e-05
3.71749e-05
3.71735e-05
3.71698e-05
3.71691e-05
3.71687e-05
3.71688e-05
3.71692e-05
3.71701e-05
3.71712e-05
3.71726e-05
3.7174e-05
3.71755e-05
3.71766e-05
3.71775e-05
3.7178e-05
3.71781e-05
3.71776e-05
3.71767e-05
3.71754e-05
3.71739e-05
3.71724e-05
3.71711e-05
3.71678e-05
3.7167e-05
3.71666e-05
3.71666e-05
3.71669e-05
3.71676e-05
3.71686e-05
3.71699e-05
3.71712e-05
3.71726e-05
3.71737e-05
3.71746e-05
3.71751e-05
3.71752e-05
3.71748e-05
3.7174e-05
3.71729e-05
3.71716e-05
3.71702e-05
3.7169e-05
3.71659e-05
3.71652e-05
3.71647e-05
3.71646e-05
3.71648e-05
3.71655e-05
3.71663e-05
3.71676e-05
3.71687e-05
3.717e-05
3.71711e-05
3.7172e-05
3.71725e-05
3.71727e-05
3.71724e-05
3.71717e-05
3.71707e-05
3.71695e-05
3.71682e-05
3.71671e-05
3.71643e-05
3.71635e-05
3.71631e-05
3.71629e-05
3.71631e-05
3.71636e-05
3.71644e-05
3.71655e-05
3.71666e-05
3.71678e-05
3.71688e-05
3.71697e-05
3.71702e-05
3.71704e-05
3.71703e-05
3.71697e-05
3.71688e-05
3.71677e-05
3.71665e-05
3.71654e-05
3.71628e-05
3.71621e-05
3.71616e-05
3.71614e-05
3.71615e-05
3.7162e-05
3.71626e-05
3.71637e-05
3.71647e-05
3.71659e-05
3.71668e-05
3.71677e-05
3.71682e-05
3.71685e-05
3.71684e-05
3.71678e-05
3.71671e-05
3.71661e-05
3.71649e-05
3.71639e-05
3.71616e-05
3.71609e-05
3.71604e-05
3.71601e-05
3.71602e-05
3.71606e-05
3.71612e-05
3.71622e-05
3.71631e-05
3.71643e-05
3.71652e-05
3.7166e-05
3.71666e-05
3.71669e-05
3.71668e-05
3.71663e-05
3.71656e-05
3.71647e-05
3.71637e-05
3.71627e-05
3.71605e-05
3.71598e-05
3.71593e-05
3.7159e-05
3.7159e-05
3.71594e-05
3.71599e-05
3.71608e-05
3.71617e-05
3.71628e-05
3.71637e-05
3.71646e-05
3.71651e-05
3.71654e-05
3.71654e-05
3.7165e-05
3.71644e-05
3.71635e-05
3.71625e-05
3.71616e-05
3.71597e-05
3.7159e-05
3.71585e-05
3.71581e-05
3.71582e-05
3.71585e-05
3.71589e-05
3.71598e-05
3.71607e-05
3.71617e-05
3.71626e-05
3.71635e-05
3.7164e-05
3.71644e-05
3.71644e-05
3.7164e-05
3.71634e-05
3.71626e-05
3.71616e-05
3.71608e-05
3.71589e-05
3.71583e-05
3.71577e-05
3.71574e-05
3.71574e-05
3.71576e-05
3.71581e-05
3.71589e-05
3.71597e-05
3.71608e-05
3.71616e-05
3.71625e-05
3.7163e-05
3.71634e-05
3.71634e-05
3.71631e-05
3.71626e-05
3.71618e-05
3.71608e-05
3.716e-05
3.71585e-05
3.71579e-05
3.71573e-05
3.71569e-05
3.71569e-05
3.71571e-05
3.71575e-05
3.71583e-05
3.71591e-05
3.71602e-05
3.7161e-05
3.71619e-05
3.71624e-05
3.71628e-05
3.71629e-05
3.71626e-05
3.71621e-05
3.71613e-05
3.71604e-05
3.71596e-05
3.71582e-05
3.71576e-05
3.7157e-05
3.71566e-05
3.71566e-05
3.71568e-05
3.71572e-05
3.7158e-05
3.71587e-05
3.71598e-05
3.71606e-05
3.71614e-05
3.7162e-05
3.71624e-05
3.71625e-05
3.71622e-05
3.71617e-05
3.71609e-05
3.716e-05
3.71593e-05
3.719e-05
3.71946e-05
3.71881e-05
3.71871e-05
3.71945e-05
3.71887e-05
3.71879e-05
3.71982e-05
3.71913e-05
3.72016e-05
3.71934e-05
3.72042e-05
3.71951e-05
3.7205e-05
3.7207e-05
3.71949e-05
3.72021e-05
3.7193e-05
3.71908e-05
3.71975e-05
4.05656e-05
3.87081e-05
3.75066e-05
3.72441e-05
3.78006e-05
3.88736e-05
4.0193e-05
4.1608e-05
4.29974e-05
4.42086e-05
4.50661e-05
4.5445e-05
4.53356e-05
4.48644e-05
4.42321e-05
4.35871e-05
4.30349e-05
4.25367e-05
4.18929e-05
4.08881e-05
3.06996e-05
3.4182e-05
3.77774e-05
4.07602e-05
4.28691e-05
4.42116e-05
4.50472e-05
4.55797e-05
4.58623e-05
4.57848e-05
4.51619e-05
4.38967e-05
4.19997e-05
3.94994e-05
3.64577e-05
3.30864e-05
2.98696e-05
2.74875e-05
2.66076e-05
2.7607e-05
3.75442e-05
3.96816e-05
4.11995e-05
4.2186e-05
4.27807e-05
4.3091e-05
4.32507e-05
4.33493e-05
4.33706e-05
4.31266e-05
4.21987e-05
4.02462e-05