/*--------------------------------*- C++ -*----------------------------------*\
| =========                 |                                                 |
| \\      /  F ield         | OpenFOAM: The Open Source CFD Toolbox           |
|  \\    /   O peration     | Version:  2.4.0                                 |
|   \\  /    A nd           | Web:      www.OpenFOAM.org                      |
|    \\/     M anipulation  |                                                 |
\*---------------------------------------------------------------------------*/
FoamFile
{
    version     2.0;
    format      ascii;
    class       volScalarField;
    location    "100";
    object      k;
}
// * * * * * * * * * * * * * * * * * * * * * * * * * * * * * * * * * * * * * //

dimensions      [0 2 -2 0 0 0 0];

internalField   nonuniform List<scalar> 
283312
(
2.85943e-05
2.91472e-05
3.02372e-05
3.19078e-05
3.40592e-05
3.64374e-05
3.87705e-05
4.09114e-05
4.28054e-05
4.43439e-05
4.52942e-05
4.53733e-05
4.43988e-05
4.23983e-05
3.95851e-05
3.6313e-05
3.30671e-05
3.03247e-05
2.84139e-05
2.74501e-05
2.23326e-05
2.66969e-05
3.18393e-05
3.68203e-05
4.09484e-05
4.3988e-05
4.60613e-05
4.74006e-05
4.81363e-05
4.80568e-05
4.66649e-05
4.36992e-05
3.9464e-05
3.46095e-05
2.9776e-05
2.53242e-05
2.16335e-05
1.91005e-05
1.80989e-05
1.89546e-05
3.16661e-05
3.67705e-05
4.06798e-05
4.33741e-05
4.50757e-05
4.6033e-05
4.65091e-05
4.67275e-05
4.65742e-05
4.49117e-05
4.05951e-05
3.408e-05
2.70239e-05
2.09675e-05
1.66572e-05
1.43041e-05
1.40275e-05
1.59055e-05
1.99014e-05
2.5427e-05
3.73104e-05
4.08225e-05
4.29347e-05
4.40481e-05
4.4558e-05
4.47786e-05
4.49174e-05
4.50433e-05
4.46708e-05
4.11027e-05
3.34152e-05
2.41538e-05
1.63353e-05
1.13389e-05
9.16257e-06
9.74645e-06
1.2951e-05
1.8492e-05
2.5324e-05
3.19231e-05
3.94058e-05
4.1898e-05
4.31287e-05
4.36644e-05
4.38963e-05
4.40189e-05
4.41362e-05
4.42548e-05
4.34881e-05
3.74466e-05
2.69116e-05
1.6672e-05
9.89412e-06
6.77819e-06
6.46145e-06
8.64103e-06
1.3571e-05
2.07593e-05
2.84819e-05
3.49483e-05
4.08105e-05
4.24017e-05
4.30653e-05
4.33061e-05
4.34067e-05
4.34812e-05
4.35889e-05
4.37017e-05
4.25963e-05
3.47085e-05
2.28425e-05
1.28258e-05
7.25496e-06
5.42068e-06
6.23696e-06
9.72514e-06
1.61304e-05
2.42622e-05
3.19153e-05
3.75039e-05
4.14729e-05
4.25056e-05
4.28983e-05
4.30439e-05
4.31243e-05
4.31956e-05
4.32969e-05
4.34014e-05
4.23326e-05
3.3875e-05
2.19296e-05
1.19048e-05
6.32641e-06
4.87237e-06
6.49038e-06
1.13041e-05
1.89519e-05
2.74581e-05
3.45241e-05
3.90916e-05
4.20745e-05
4.26377e-05
4.28279e-05
4.28942e-05
4.29385e-05
4.29914e-05
4.30736e-05
4.31915e-05
4.29118e-05
3.57758e-05
2.52091e-05
1.49378e-05
8.09989e-06
6.17668e-06
8.60832e-06
1.48603e-05
2.33671e-05
3.14971e-05
3.73254e-05
4.05906e-05
4.24804e-05
4.26966e-05
4.27658e-05
4.27988e-05
4.28318e-05
4.28772e-05
4.29424e-05
4.30525e-05
4.31858e-05
3.77211e-05
2.95547e-05
2.02762e-05
1.27818e-05
1.07593e-05
1.46109e-05
2.21097e-05
3.02003e-05
3.64329e-05
4.00999e-05
4.18163e-05
4.26365e-05
4.26973e-05
4.27181e-05
4.27339e-05
4.27554e-05
4.27901e-05
4.284e-05
4.2934e-05
4.30529e-05
3.72877e-05
2.98514e-05
2.25885e-05
1.77369e-05
1.82721e-05
2.37358e-05
3.07956e-05
3.65831e-05
4.00951e-05
4.17709e-05
4.24225e-05
4.26519e-05
4.26707e-05
4.2681e-05
4.26936e-05
4.27108e-05
4.27382e-05
4.27754e-05
4.28515e-05
4.29365e-05
3.6628e-05
2.91485e-05
2.2788e-05
2.09556e-05
2.45848e-05
3.08619e-05
3.64447e-05
3.99584e-05
4.16759e-05
4.2359e-05
4.25862e-05
4.26408e-05
4.26502e-05
4.26568e-05
4.26657e-05
4.26781e-05
4.26982e-05
4.27269e-05
4.27866e-05
4.28611e-05
3.61618e-05
2.91666e-05
2.38757e-05
2.3687e-05
2.8524e-05
3.44838e-05
3.88185e-05
4.11448e-05
4.21441e-05
4.25018e-05
4.2611e-05
4.26279e-05
4.26354e-05
4.2641e-05
4.26483e-05
4.26579e-05
4.26726e-05
4.26937e-05
4.27363e-05
4.27932e-05
3.59044e-05
2.84699e-05
2.30246e-05
2.40047e-05
2.97147e-05
3.56175e-05
3.95046e-05
4.14519e-05
4.2248e-05
4.25231e-05
4.26053e-05
4.2619e-05
4.26255e-05
4.263e-05
4.26355e-05
4.26425e-05
4.26529e-05
4.26684e-05
4.2698e-05
4.27718e-05
3.60302e-05
2.93994e-05
2.44658e-05
2.5379e-05
3.06953e-05
3.61673e-05
3.97568e-05
4.15465e-05
4.22741e-05
4.25241e-05
4.25986e-05
4.26133e-05
4.26187e-05
4.26223e-05
4.26267e-05
4.26322e-05
4.26396e-05
4.2651e-05
4.26707e-05
4.27347e-05
3.55887e-05
2.78246e-05
2.33105e-05
2.54413e-05
3.12385e-05
3.66299e-05
4.00127e-05
4.16552e-05
4.23097e-05
4.25309e-05
4.25958e-05
4.26103e-05
4.26137e-05
4.26163e-05
4.26196e-05
4.26237e-05
4.26289e-05
4.26352e-05
4.26442e-05
4.2648e-05
3.57904e-05
2.62009e-05
2.27598e-05
2.62963e-05
3.2557e-05
3.77086e-05
4.0629e-05
4.19268e-05
4.24061e-05
4.25577e-05
4.25996e-05
4.26094e-05
4.26101e-05
4.26116e-05
4.26142e-05
4.26175e-05
4.26217e-05
4.26265e-05
4.26328e-05
4.26352e-05
4.18903e-05
4.14152e-05
4.16073e-05
4.20059e-05
4.22718e-05
4.23927e-05
4.24991e-05
4.25679e-05
4.25981e-05
4.26073e-05
4.2609e-05
4.2606e-05
4.26063e-05
4.26074e-05
4.26094e-05
4.2612e-05
4.26153e-05
4.26189e-05
4.26234e-05
4.26283e-05
4.26115e-05
4.26007e-05
4.26053e-05
4.2616e-05
4.26211e-05
4.26199e-05
4.2617e-05
4.2614e-05
4.26109e-05
4.26083e-05
4.26066e-05
4.26029e-05
4.2603e-05
4.26038e-05
4.26053e-05
4.26074e-05
4.26102e-05
4.2613e-05
4.26162e-05
4.26186e-05
4.26204e-05
4.26192e-05
4.2619e-05
4.26207e-05
4.26205e-05
4.26186e-05
4.26153e-05
4.26116e-05
4.26082e-05
4.26055e-05
4.26037e-05
4.26e-05
4.25999e-05
4.26004e-05
4.26016e-05
4.26033e-05
4.26056e-05
4.26081e-05
4.26109e-05
4.26133e-05
4.26149e-05
4.26145e-05
4.26139e-05
4.26144e-05
4.26142e-05
4.26129e-05
4.26104e-05
4.26074e-05
4.26046e-05
4.26023e-05
4.26007e-05
4.25973e-05
4.25971e-05
4.25974e-05
4.25983e-05
4.25997e-05
4.26016e-05
4.26036e-05
4.26059e-05
4.26076e-05
4.26092e-05
4.26093e-05
4.26095e-05
4.26102e-05
4.26099e-05
4.26088e-05
4.26066e-05
4.26042e-05
4.26017e-05
4.25996e-05
4.25981e-05
4.25948e-05
4.25944e-05
4.25946e-05
4.25953e-05
4.25965e-05
4.25981e-05
4.25998e-05
4.26019e-05
4.26035e-05
4.2605e-05
4.26053e-05
4.26054e-05
4.26058e-05
4.26055e-05
4.26046e-05
4.26029e-05
4.26008e-05
4.25987e-05
4.25969e-05
4.25956e-05
4.25925e-05
4.2592e-05
4.25921e-05
4.25926e-05
4.25935e-05
4.25949e-05
4.25963e-05
4.25981e-05
4.25995e-05
4.26008e-05
4.26014e-05
4.26018e-05
4.26023e-05
4.26021e-05
4.26013e-05
4.25998e-05
4.2598e-05
4.25962e-05
4.25946e-05
4.25933e-05
4.25903e-05
4.25898e-05
4.25898e-05
4.25901e-05
4.25909e-05
4.2592e-05
4.25933e-05
4.25948e-05
4.25962e-05
4.25975e-05
4.25981e-05
4.25985e-05
4.25988e-05
4.25986e-05
4.2598e-05
4.25968e-05
4.25953e-05
4.25937e-05
4.25922e-05
4.2591e-05
4.25883e-05
4.25878e-05
4.25876e-05
4.25879e-05
4.25885e-05
4.25894e-05
4.25905e-05
4.25919e-05
4.2593e-05
4.25942e-05
4.25949e-05
4.25954e-05
4.25958e-05
4.25958e-05
4.25952e-05
4.25942e-05
4.25929e-05
4.25915e-05
4.25901e-05
4.2589e-05
4.25864e-05
4.25859e-05
4.25857e-05
4.25858e-05
4.25863e-05
4.25871e-05
4.25881e-05
4.25893e-05
4.25904e-05
4.25915e-05
4.25922e-05
4.25927e-05
4.2593e-05
4.2593e-05
4.25926e-05
4.25917e-05
4.25906e-05
4.25893e-05
4.25881e-05
4.25871e-05
4.25847e-05
4.25842e-05
4.25839e-05
4.2584e-05
4.25844e-05
4.2585e-05
4.25859e-05
4.25869e-05
4.25879e-05
4.25889e-05
4.25896e-05
4.25902e-05
4.25906e-05
4.25906e-05
4.25903e-05
4.25895e-05
4.25885e-05
4.25874e-05
4.25863e-05
4.25854e-05
4.25831e-05
4.25826e-05
4.25823e-05
4.25823e-05
4.25826e-05
4.25832e-05
4.25839e-05
4.25849e-05
4.25858e-05
4.25867e-05
4.25874e-05
4.2588e-05
4.25883e-05
4.25884e-05
4.25881e-05
4.25875e-05
4.25867e-05
4.25857e-05
4.25847e-05
4.25838e-05
4.25817e-05
4.25812e-05
4.25809e-05
4.25808e-05
4.2581e-05
4.25815e-05
4.25822e-05
4.2583e-05
4.25838e-05
4.25847e-05
4.25854e-05
4.2586e-05
4.25864e-05
4.25865e-05
4.25863e-05
4.25857e-05
4.2585e-05
4.25841e-05
4.25832e-05
4.25823e-05
4.25805e-05
4.25799e-05
4.25796e-05
4.25795e-05
4.25797e-05
4.25801e-05
4.25806e-05
4.25814e-05
4.25822e-05
4.2583e-05
4.25836e-05
4.25842e-05
4.25846e-05
4.25847e-05
4.25846e-05
4.25841e-05
4.25835e-05
4.25827e-05
4.25818e-05
4.2581e-05
4.25793e-05
4.25788e-05
4.25785e-05
4.25783e-05
4.25784e-05
4.25788e-05
4.25792e-05
4.25799e-05
4.25806e-05
4.25814e-05
4.25821e-05
4.25826e-05
4.2583e-05
4.25832e-05
4.25831e-05
4.25827e-05
4.25821e-05
4.25814e-05
4.25806e-05
4.25799e-05
4.25783e-05
4.25778e-05
4.25775e-05
4.25773e-05
4.25774e-05
4.25776e-05
4.25781e-05
4.25787e-05
4.25794e-05
4.25801e-05
4.25807e-05
4.25813e-05
4.25816e-05
4.25818e-05
4.25817e-05
4.25814e-05
4.25809e-05
4.25803e-05
4.25795e-05
4.25789e-05
4.25774e-05
4.25769e-05
4.25766e-05
4.25764e-05
4.25764e-05
4.25766e-05
4.2577e-05
4.25776e-05
4.25782e-05
4.25789e-05
4.25795e-05
4.25801e-05
4.25804e-05
4.25806e-05
4.25806e-05
4.25803e-05
4.25799e-05
4.25793e-05
4.25786e-05
4.25779e-05
4.25767e-05
4.25762e-05
4.25758e-05
4.25756e-05
4.25756e-05
4.25758e-05
4.25761e-05
4.25767e-05
4.25773e-05
4.25779e-05
4.25785e-05
4.2579e-05
4.25794e-05
4.25796e-05
4.25796e-05
4.25794e-05
4.2579e-05
4.25784e-05
4.25778e-05
4.25772e-05
4.2576e-05
4.25755e-05
4.25752e-05
4.25749e-05
4.25749e-05
4.25751e-05
4.25754e-05
4.25759e-05
4.25764e-05
4.25771e-05
4.25776e-05
4.25782e-05
4.25785e-05
4.25788e-05
4.25788e-05
4.25786e-05
4.25782e-05
4.25777e-05
4.25771e-05
4.25765e-05
4.25755e-05
4.25751e-05
4.25747e-05
4.25744e-05
4.25744e-05
4.25745e-05
4.25748e-05
4.25753e-05
4.25758e-05
4.25764e-05
4.2577e-05
4.25775e-05
4.25779e-05
4.25781e-05
4.25782e-05
4.2578e-05
4.25776e-05
4.25772e-05
4.25766e-05
4.2576e-05
4.25751e-05
4.25746e-05
4.25742e-05
4.2574e-05
4.25739e-05
4.2574e-05
4.25743e-05
4.25747e-05
4.25752e-05
4.25758e-05
4.25764e-05
4.25769e-05
4.25773e-05
4.25775e-05
4.25776e-05
4.25774e-05
4.25771e-05
4.25766e-05
4.25761e-05
4.25755e-05
4.25749e-05
4.25744e-05
4.2574e-05
4.25737e-05
4.25736e-05
4.25737e-05
4.25739e-05
4.25744e-05
4.25749e-05
4.25755e-05
4.2576e-05
4.25765e-05
4.25769e-05
4.25771e-05
4.25772e-05
4.25771e-05
4.25768e-05
4.25763e-05
4.25758e-05
4.25753e-05
4.25747e-05
4.25742e-05
4.25739e-05
4.25736e-05
4.25735e-05
4.25736e-05
4.25738e-05
4.25742e-05
4.25747e-05
4.25753e-05
4.25758e-05
4.25763e-05
4.25767e-05
4.2577e-05
4.25771e-05
4.25769e-05
4.25766e-05
4.25762e-05
4.25756e-05
4.25752e-05
4.26044e-05
4.26093e-05
4.2603e-05
4.26018e-05
4.26091e-05
4.26034e-05
4.26023e-05
4.2612e-05
4.26052e-05
4.26146e-05
4.26066e-05
4.26165e-05
4.26077e-05
4.2617e-05
4.26192e-05
4.26077e-05
4.26147e-05
4.26062e-05
4.26041e-05
4.26112e-05
2.71383e-05
2.77346e-05
2.90042e-05
3.09593e-05
3.34474e-05
3.61767e-05
3.88322e-05
4.1253e-05
4.33632e-05
4.5029e-05
4.59951e-05
4.59697e-05
4.47821e-05
4.24909e-05
3.93578e-05
3.57635e-05
3.22287e-05
2.92476e-05
2.71486e-05
2.60484e-05
2.24456e-05
2.71968e-05
3.26099e-05
3.77182e-05
4.18668e-05
4.4874e-05
4.69055e-05
4.82065e-05
4.89e-05
4.87439e-05
4.7209e-05
4.40355e-05
3.95575e-05
3.44538e-05
2.93758e-05
2.47191e-05
2.09036e-05
1.83704e-05
1.75239e-05
1.86868e-05
3.25422e-05
3.77154e-05
4.16103e-05
4.42543e-05
4.58964e-05
4.67977e-05
4.72401e-05
4.74441e-05
4.72777e-05
4.55437e-05
4.10687e-05
3.43452e-05
2.70754e-05
2.08285e-05
1.63723e-05
1.39722e-05
1.37924e-05
1.59307e-05
2.02886e-05
2.6142e-05
3.83315e-05
4.17722e-05
4.38001e-05
4.48439e-05
4.53108e-05
4.55143e-05
4.56501e-05
4.578e-05
4.54237e-05
4.18004e-05
3.39683e-05
2.45142e-05
1.64896e-05
1.13251e-05
9.09347e-06
9.79347e-06
1.32904e-05
1.9193e-05
2.62937e-05
3.29947e-05
4.0412e-05
4.27851e-05
4.39326e-05
4.44235e-05
4.46373e-05
4.47546e-05
4.48736e-05
4.49987e-05
4.4295e-05
3.82128e-05
2.75134e-05
1.70209e-05
9.94876e-06
6.61986e-06
6.31355e-06
8.78697e-06
1.42009e-05
2.17996e-05
2.96888e-05
3.61104e-05
4.1746e-05
4.32277e-05
4.3834e-05
4.40516e-05
4.41467e-05
4.42216e-05
4.43324e-05
4.44522e-05
4.34402e-05
3.54807e-05
2.34147e-05
1.31057e-05
7.22388e-06
5.24784e-06
6.21669e-06
1.01707e-05
1.71114e-05
2.55449e-05
3.32003e-05
3.86276e-05
4.23595e-05
4.33035e-05
4.36579e-05
4.37904e-05
4.38678e-05
4.39392e-05
4.40425e-05
4.41532e-05
4.3176e-05
3.45835e-05
2.24287e-05
1.21462e-05
6.31226e-06
4.82228e-06
6.76837e-06
1.21664e-05
2.02796e-05
2.89055e-05
3.58191e-05
4.01596e-05
4.28991e-05
4.34071e-05
4.35774e-05
4.36384e-05
4.36825e-05
4.37364e-05
4.38203e-05
4.39412e-05
4.36991e-05
3.63392e-05
2.55918e-05
1.51971e-05
8.27601e-06
6.4376e-06
9.30682e-06
1.60977e-05
2.48719e-05
3.29216e-05
3.85057e-05
4.15507e-05
4.32558e-05
4.34489e-05
4.35116e-05
4.35435e-05
4.35768e-05
4.36229e-05
4.36891e-05
4.38012e-05
4.39381e-05
3.81823e-05
2.98374e-05
2.05271e-05
1.31795e-05
1.14982e-05
1.57992e-05
2.35862e-05
3.16482e-05
3.76539e-05
4.10901e-05
4.26612e-05
4.33888e-05
4.34429e-05
4.34625e-05
4.34786e-05
4.35007e-05
4.35362e-05
4.35868e-05
4.36826e-05
4.38027e-05
3.77314e-05
3.0169e-05
2.29027e-05
1.82766e-05
1.92412e-05
2.50331e-05
3.2134e-05
3.77546e-05
4.10686e-05
4.26118e-05
4.31994e-05
4.33982e-05
4.34154e-05
4.34257e-05
4.34387e-05
4.34563e-05
4.34843e-05
4.35219e-05
4.35994e-05
4.36845e-05
3.70582e-05
2.94904e-05
2.31304e-05
2.15383e-05
2.55254e-05
3.19793e-05
3.75149e-05
4.08976e-05
4.25093e-05
4.31359e-05
4.33401e-05
4.3386e-05
4.33948e-05
4.34015e-05
4.34109e-05
4.34236e-05
4.34442e-05
4.34733e-05
4.35341e-05
4.36087e-05
3.65837e-05
2.95713e-05
2.42983e-05
2.43054e-05
2.94006e-05
3.54547e-05
3.97415e-05
4.19873e-05
4.29303e-05
4.32605e-05
4.33593e-05
4.33731e-05
4.33802e-05
4.33859e-05
4.33935e-05
4.34034e-05
4.34184e-05
4.34399e-05
4.34831e-05
4.35401e-05
3.63264e-05
2.8848e-05
2.34209e-05
2.46224e-05
3.05603e-05
3.65338e-05
4.03811e-05
4.22675e-05
4.30226e-05
4.3278e-05
4.33528e-05
4.33641e-05
4.33703e-05
4.33749e-05
4.33806e-05
4.33879e-05
4.33985e-05
4.34144e-05
4.34444e-05
4.35195e-05
3.64701e-05
2.98562e-05
2.49255e-05
2.60162e-05
3.15298e-05
3.70648e-05
4.06194e-05
4.2355e-05
4.30457e-05
4.3278e-05
4.33458e-05
4.33584e-05
4.33635e-05
4.33672e-05
4.33717e-05
4.33774e-05
4.3385e-05
4.33966e-05
4.34167e-05
4.34821e-05
3.60037e-05
2.8192e-05
2.37379e-05
2.60938e-05
3.20824e-05
3.75237e-05
4.0868e-05
4.24582e-05
4.30786e-05
4.32838e-05
4.33428e-05
4.33552e-05
4.33584e-05
4.33611e-05
4.33645e-05
4.33688e-05
4.33742e-05
4.33806e-05
4.33899e-05
4.33934e-05
3.61769e-05
2.63485e-05
2.30924e-05
2.69673e-05
3.34351e-05
3.86085e-05
4.14731e-05
4.27186e-05
4.31687e-05
4.3308e-05
4.33457e-05
4.33538e-05
4.33546e-05
4.33563e-05
4.3359e-05
4.33624e-05
4.33668e-05
4.33718e-05
4.33781e-05
4.33805e-05
4.25989e-05
4.21325e-05
4.23538e-05
4.2764e-05
4.30263e-05
4.31464e-05
4.3251e-05
4.33164e-05
4.33441e-05
4.33522e-05
4.33536e-05
4.33504e-05
4.33508e-05
4.3352e-05
4.33541e-05
4.33569e-05
4.33603e-05
4.3364e-05
4.33686e-05
4.33736e-05
4.33559e-05
4.33454e-05
4.33506e-05
4.33615e-05
4.33662e-05
4.33648e-05
4.33617e-05
4.33584e-05
4.33552e-05
4.33526e-05
4.3351e-05
4.33473e-05
4.33474e-05
4.33483e-05
4.335e-05
4.33522e-05
4.3355e-05
4.3358e-05
4.33612e-05
4.33636e-05
4.33654e-05
4.3364e-05
4.33639e-05
4.33656e-05
4.33653e-05
4.33632e-05
4.33597e-05
4.33559e-05
4.33525e-05
4.33498e-05
4.33481e-05
4.33443e-05
4.33443e-05
4.33449e-05
4.33462e-05
4.3348e-05
4.33504e-05
4.33529e-05
4.33558e-05
4.33581e-05
4.33598e-05
4.33592e-05
4.33586e-05
4.33592e-05
4.33589e-05
4.33574e-05
4.33548e-05
4.33517e-05
4.33489e-05
4.33466e-05
4.33451e-05
4.33416e-05
4.33414e-05
4.33418e-05
4.33429e-05
4.33443e-05
4.33463e-05
4.33484e-05
4.33507e-05
4.33524e-05
4.33539e-05
4.3354e-05
4.33541e-05
4.33548e-05
4.33545e-05
4.33533e-05
4.3351e-05
4.33485e-05
4.3346e-05
4.33439e-05
4.33424e-05
4.33391e-05
4.33388e-05
4.3339e-05
4.33398e-05
4.3341e-05
4.33427e-05
4.33445e-05
4.33465e-05
4.33482e-05
4.33497e-05
4.335e-05
4.335e-05
4.33503e-05
4.335e-05
4.3349e-05
4.33472e-05
4.33451e-05
4.3343e-05
4.33412e-05
4.33398e-05
4.33367e-05
4.33363e-05
4.33364e-05
4.3337e-05
4.3338e-05
4.33394e-05
4.33409e-05
4.33427e-05
4.33441e-05
4.33454e-05
4.33459e-05
4.33463e-05
4.33468e-05
4.33466e-05
4.33457e-05
4.33441e-05
4.33423e-05
4.33404e-05
4.33388e-05
4.33375e-05
4.33345e-05
4.33341e-05
4.3334e-05
4.33345e-05
4.33353e-05
4.33364e-05
4.33378e-05
4.33394e-05
4.33407e-05
4.3342e-05
4.33426e-05
4.33429e-05
4.33432e-05
4.3343e-05
4.33423e-05
4.33411e-05
4.33395e-05
4.33379e-05
4.33364e-05
4.33352e-05
4.33324e-05
4.3332e-05
4.33319e-05
4.33322e-05
4.33328e-05
4.33338e-05
4.33349e-05
4.33363e-05
4.33375e-05
4.33387e-05
4.33393e-05
4.33399e-05
4.33402e-05
4.33401e-05
4.33395e-05
4.33384e-05
4.33371e-05
4.33356e-05
4.33343e-05
4.33332e-05
4.33305e-05
4.333e-05
4.33299e-05
4.33301e-05
4.33306e-05
4.33314e-05
4.33324e-05
4.33337e-05
4.33348e-05
4.33359e-05
4.33365e-05
4.33371e-05
4.33374e-05
4.33373e-05
4.33368e-05
4.33359e-05
4.33348e-05
4.33335e-05
4.33323e-05
4.33313e-05
4.33288e-05
4.33283e-05
4.33281e-05
4.33282e-05
4.33286e-05
4.33293e-05
4.33302e-05
4.33313e-05
4.33323e-05
4.33333e-05
4.3334e-05
4.33345e-05
4.33349e-05
4.33349e-05
4.33345e-05
4.33337e-05
4.33327e-05
4.33316e-05
4.33305e-05
4.33295e-05
4.33272e-05
4.33267e-05
4.33265e-05
4.33265e-05
4.33268e-05
4.33274e-05
4.33282e-05
4.33292e-05
4.33301e-05
4.3331e-05
4.33317e-05
4.33323e-05
4.33326e-05
4.33326e-05
4.33323e-05
4.33317e-05
4.33308e-05
4.33298e-05
4.33288e-05
4.33279e-05
4.33258e-05
4.33253e-05
4.3325e-05
4.3325e-05
4.33252e-05
4.33257e-05
4.33264e-05
4.33273e-05
4.33281e-05
4.3329e-05
4.33297e-05
4.33302e-05
4.33306e-05
4.33307e-05
4.33304e-05
4.33299e-05
4.33291e-05
4.33282e-05
4.33273e-05
4.33264e-05
4.33245e-05
4.3324e-05
4.33237e-05
4.33236e-05
4.33238e-05
4.33242e-05
4.33248e-05
4.33256e-05
4.33264e-05
4.33272e-05
4.33279e-05
4.33284e-05
4.33288e-05
4.33289e-05
4.33287e-05
4.33282e-05
4.33276e-05
4.33267e-05
4.33259e-05
4.33251e-05
4.33234e-05
4.33228e-05
4.33225e-05
4.33224e-05
4.33225e-05
4.33229e-05
4.33234e-05
4.33241e-05
4.33248e-05
4.33256e-05
4.33263e-05
4.33268e-05
4.33272e-05
4.33273e-05
4.33272e-05
4.33268e-05
4.33262e-05
4.33255e-05
4.33247e-05
4.33239e-05
4.33223e-05
4.33218e-05
4.33215e-05
4.33214e-05
4.33215e-05
4.33218e-05
4.33222e-05
4.33229e-05
4.33235e-05
4.33243e-05
4.33249e-05
4.33254e-05
4.33258e-05
4.3326e-05
4.33259e-05
4.33255e-05
4.3325e-05
4.33243e-05
4.33236e-05
4.33229e-05
4.33214e-05
4.3321e-05
4.33206e-05
4.33204e-05
4.33205e-05
4.33207e-05
4.33211e-05
4.33217e-05
4.33224e-05
4.33231e-05
4.33237e-05
4.33242e-05
4.33246e-05
4.33248e-05
4.33247e-05
4.33244e-05
4.33239e-05
4.33233e-05
4.33226e-05
4.3322e-05
4.33207e-05
4.33202e-05
4.33199e-05
4.33197e-05
4.33197e-05
4.33199e-05
4.33202e-05
4.33208e-05
4.33214e-05
4.33221e-05
4.33226e-05
4.33232e-05
4.33235e-05
4.33237e-05
4.33237e-05
4.33235e-05
4.3323e-05
4.33225e-05
4.33218e-05
4.33212e-05
4.332e-05
4.33196e-05
4.33192e-05
4.3319e-05
4.3319e-05
4.33192e-05
4.33195e-05
4.332e-05
4.33205e-05
4.33212e-05
4.33217e-05
4.33223e-05
4.33226e-05
4.33229e-05
4.33229e-05
4.33226e-05
4.33223e-05
4.33217e-05
4.33211e-05
4.33205e-05
4.33195e-05
4.33191e-05
4.33187e-05
4.33185e-05
4.33184e-05
4.33186e-05
4.33188e-05
4.33194e-05
4.33199e-05
4.33205e-05
4.33211e-05
4.33216e-05
4.3322e-05
4.33222e-05
4.33222e-05
4.3322e-05
4.33217e-05
4.33212e-05
4.33206e-05
4.332e-05
4.33191e-05
4.33186e-05
4.33182e-05
4.3318e-05
4.33179e-05
4.33181e-05
4.33183e-05
4.33188e-05
4.33193e-05
4.33199e-05
4.33205e-05
4.3321e-05
4.33213e-05
4.33216e-05
4.33216e-05
4.33214e-05
4.33211e-05
4.33206e-05
4.33201e-05
4.33196e-05
4.33188e-05
4.33184e-05
4.3318e-05
4.33177e-05
4.33177e-05
4.33178e-05
4.3318e-05
4.33185e-05
4.33189e-05
4.33196e-05
4.33201e-05
4.33206e-05
4.3321e-05
4.33212e-05
4.33213e-05
4.33211e-05
4.33208e-05
4.33204e-05
4.33198e-05
4.33193e-05
4.33187e-05
4.33182e-05
4.33178e-05
4.33176e-05
4.33175e-05
4.33176e-05
4.33178e-05
4.33183e-05
4.33188e-05
4.33194e-05
4.33199e-05
4.33204e-05
4.33208e-05
4.3321e-05
4.33211e-05
4.33209e-05
4.33206e-05
4.33202e-05
4.33196e-05
4.33192e-05
4.33478e-05
4.33522e-05
4.33463e-05
4.33453e-05
4.33521e-05
4.33468e-05
4.33459e-05
4.3355e-05
4.33486e-05
4.33575e-05
4.335e-05
4.33593e-05
4.33511e-05
4.33599e-05
4.33617e-05
4.33509e-05
4.33575e-05
4.33495e-05
4.33476e-05
4.33541e-05
2.56715e-05
2.63534e-05
2.78408e-05
3.01065e-05
3.29471e-05
3.60289e-05
3.90036e-05
4.16948e-05
4.40049e-05
4.57762e-05
4.6733e-05
4.65757e-05
4.51485e-05
4.25436e-05
3.9068e-05
3.51391e-05
3.13128e-05
2.80987e-05
2.58256e-05
2.4613e-05
2.27003e-05
2.78282e-05
3.34845e-05
3.86923e-05
4.28412e-05
4.58068e-05
4.77894e-05
4.90461e-05
4.9692e-05
4.9452e-05
4.77639e-05
4.4372e-05
3.96427e-05
3.4285e-05
2.89672e-05
2.41142e-05
2.01949e-05
1.76948e-05
1.70428e-05
1.85476e-05
3.35098e-05
3.87258e-05
4.25876e-05
4.51687e-05
4.67429e-05
4.75856e-05
4.79949e-05
4.81857e-05
4.80066e-05
4.61983e-05
4.15607e-05
3.46276e-05
2.71473e-05
2.07177e-05
1.61258e-05
1.37032e-05
1.36519e-05
1.60806e-05
2.08112e-05
2.69767e-05
3.94126e-05
4.276e-05
4.46921e-05
4.56627e-05
4.6087e-05
4.62744e-05
4.64079e-05
4.65426e-05
4.62025e-05
4.25217e-05
3.45457e-05
2.49084e-05
1.6696e-05
1.13861e-05
9.12892e-06
9.97771e-06
1.37916e-05
2.00526e-05
2.73913e-05
3.41555e-05
4.14629e-05
4.37014e-05
4.4761e-05
4.52066e-05
4.5403e-05
4.55153e-05
4.56364e-05
4.5768e-05
4.51297e-05
3.90075e-05
2.8152e-05
1.74289e-05
1.00915e-05
6.57986e-06
6.33009e-06
9.14681e-06
1.50541e-05
2.3022e-05
3.10174e-05
3.73437e-05
4.27144e-05
4.40796e-05
4.46276e-05
4.48222e-05
4.49122e-05
4.49873e-05
4.51013e-05
4.5228e-05
4.43116e-05
3.62797e-05
2.40307e-05
1.34655e-05
7.31061e-06
5.23304e-06
6.41347e-06
1.08729e-05
1.83226e-05
2.69878e-05
3.45772e-05
3.98e-05
4.32727e-05
4.41258e-05
4.44422e-05
4.45619e-05
4.46366e-05
4.4708e-05
4.48134e-05
4.49301e-05
4.4046e-05
3.53161e-05
2.29743e-05
1.24784e-05
6.43791e-06
4.96578e-06
7.30623e-06
1.32955e-05
2.18108e-05
3.0474e-05
3.71754e-05
4.12603e-05
4.37484e-05
4.42011e-05
4.43519e-05
4.44079e-05
4.44519e-05
4.45067e-05
4.45923e-05
4.47163e-05
4.4512e-05
3.69206e-05
2.60135e-05
1.55338e-05
8.58244e-06
6.90166e-06
1.02614e-05
1.75642e-05
2.6528e-05
3.44249e-05
3.97245e-05
4.25357e-05
4.40555e-05
4.42261e-05
4.42825e-05
4.43133e-05
4.4347e-05
4.43939e-05
4.44609e-05
4.45751e-05
4.47157e-05
3.86551e-05
3.01419e-05
2.08205e-05
1.36647e-05
1.23909e-05
1.71655e-05
2.52014e-05
3.31756e-05
3.89149e-05
4.21053e-05
4.3529e-05
4.41658e-05
4.42136e-05
4.4232e-05
4.42485e-05
4.42712e-05
4.43075e-05
4.43588e-05
4.44564e-05
4.45776e-05
3.81861e-05
3.05077e-05
2.32474e-05
1.88754e-05
2.03024e-05
2.64202e-05
3.35323e-05
3.896e-05
4.20654e-05
4.34749e-05
4.39999e-05
4.41695e-05
4.41852e-05
4.41955e-05
4.4209e-05
4.4227e-05
4.42555e-05
4.42936e-05
4.43726e-05
4.44575e-05
3.74996e-05
2.98558e-05
2.3501e-05
2.21659e-05
2.65215e-05
3.31423e-05
3.86156e-05
4.18598e-05
4.33648e-05
4.39361e-05
4.41183e-05
4.41562e-05
4.41646e-05
4.41715e-05
4.41812e-05
4.41943e-05
4.42154e-05
4.42449e-05
4.43067e-05
4.43813e-05
3.70167e-05
3.00051e-05
2.47496e-05
2.49609e-05
3.03175e-05
3.64584e-05
4.069e-05
4.28526e-05
4.37397e-05
4.40434e-05
4.41324e-05
4.41433e-05
4.41501e-05
4.41559e-05
4.41638e-05
4.4174e-05
4.41893e-05
4.42112e-05
4.42551e-05
4.43122e-05
3.67605e-05
2.92526e-05
2.38438e-05
2.52737e-05
3.14417e-05
3.74804e-05
4.12827e-05
4.31066e-05
4.38208e-05
4.40572e-05
4.4125e-05
4.41344e-05
4.41402e-05
4.41449e-05
4.41508e-05
4.41584e-05
4.41693e-05
4.41854e-05
4.42159e-05
4.42923e-05
3.69243e-05
3.03457e-05
2.5413e-05
2.6686e-05
3.23989e-05
3.79922e-05
4.15073e-05
4.3187e-05
4.38411e-05
4.40563e-05
4.41179e-05
4.41286e-05
4.41334e-05
4.41372e-05
4.41419e-05
4.41477e-05
4.41556e-05
4.41675e-05
4.41878e-05
4.42546e-05
3.64314e-05
2.85866e-05
2.41933e-05
2.678e-05
3.29608e-05
3.8447e-05
4.17482e-05
4.32848e-05
4.38714e-05
4.40612e-05
4.41146e-05
4.41251e-05
4.41282e-05
4.4131e-05
4.41346e-05
4.4139e-05
4.41446e-05
4.41511e-05
4.41607e-05
4.4164e-05
3.65704e-05
2.65034e-05
2.34504e-05
2.76761e-05
3.43491e-05
3.95365e-05
4.23413e-05
4.35337e-05
4.39553e-05
4.40829e-05
4.41167e-05
4.41234e-05
4.41243e-05
4.41261e-05
4.41289e-05
4.41325e-05
4.41371e-05
4.41421e-05
4.41486e-05
4.41509e-05
4.33308e-05
4.28754e-05
4.31268e-05
4.3548e-05
4.38059e-05
4.39252e-05
4.40278e-05
4.40898e-05
4.41151e-05
4.41221e-05
4.41231e-05
4.41199e-05
4.41204e-05
4.41218e-05
4.4124e-05
4.41268e-05
4.41304e-05
4.41342e-05
4.41389e-05
4.41439e-05
4.41253e-05
4.41152e-05
4.4121e-05
4.4132e-05
4.41363e-05
4.41347e-05
4.41314e-05
4.41279e-05
4.41246e-05
4.4122e-05
4.41204e-05
4.41168e-05
4.4117e-05
4.4118e-05
4.41197e-05
4.4122e-05
4.4125e-05
4.4128e-05
4.41313e-05
4.41337e-05
4.41354e-05
4.4134e-05
4.41338e-05
4.41356e-05
4.41351e-05
4.41329e-05
4.41292e-05
4.41253e-05
4.41218e-05
4.41191e-05
4.41174e-05
4.41137e-05
4.41138e-05
4.41145e-05
4.41159e-05
4.41178e-05
4.41202e-05
4.41228e-05
4.41257e-05
4.41281e-05
4.41297e-05
4.41291e-05
4.41285e-05
4.4129e-05
4.41286e-05
4.4127e-05
4.41242e-05
4.41211e-05
4.41182e-05
4.41159e-05
4.41144e-05
4.4111e-05
4.41109e-05
4.41114e-05
4.41124e-05
4.4114e-05
4.4116e-05
4.41182e-05
4.41205e-05
4.41222e-05
4.41238e-05
4.41237e-05
4.41239e-05
4.41246e-05
4.41242e-05
4.41228e-05
4.41205e-05
4.41178e-05
4.41153e-05
4.41132e-05
4.41118e-05
4.41084e-05
4.41082e-05
4.41085e-05
4.41093e-05
4.41106e-05
4.41123e-05
4.41142e-05
4.41163e-05
4.4118e-05
4.41194e-05
4.41196e-05
4.41197e-05
4.412e-05
4.41196e-05
4.41185e-05
4.41166e-05
4.41144e-05
4.41123e-05
4.41105e-05
4.41092e-05
4.4106e-05
4.41057e-05
4.41058e-05
4.41065e-05
4.41075e-05
4.41089e-05
4.41105e-05
4.41123e-05
4.41137e-05
4.41151e-05
4.41155e-05
4.4116e-05
4.41164e-05
4.41161e-05
4.41151e-05
4.41135e-05
4.41116e-05
4.41097e-05
4.41081e-05
4.41068e-05
4.41037e-05
4.41034e-05
4.41034e-05
4.41039e-05
4.41047e-05
4.4106e-05
4.41073e-05
4.41089e-05
4.41103e-05
4.41116e-05
4.41121e-05
4.41125e-05
4.41127e-05
4.41125e-05
4.41117e-05
4.41104e-05
4.41088e-05
4.41072e-05
4.41057e-05
4.41045e-05
4.41017e-05
4.41012e-05
4.41012e-05
4.41015e-05
4.41022e-05
4.41032e-05
4.41044e-05
4.41058e-05
4.4107e-05
4.41082e-05
4.41088e-05
4.41094e-05
4.41097e-05
4.41095e-05
4.41089e-05
4.41077e-05
4.41064e-05
4.41049e-05
4.41035e-05
4.41024e-05
4.40997e-05
4.40993e-05
4.40992e-05
4.40994e-05
4.40999e-05
4.41008e-05
4.41019e-05
4.41031e-05
4.41042e-05
4.41053e-05
4.4106e-05
4.41065e-05
4.41068e-05
4.41067e-05
4.41062e-05
4.41052e-05
4.4104e-05
4.41027e-05
4.41015e-05
4.41005e-05
4.4098e-05
4.40975e-05
4.40973e-05
4.40975e-05
4.40979e-05
4.40986e-05
4.40995e-05
4.41007e-05
4.41017e-05
4.41027e-05
4.41034e-05
4.41039e-05
4.41043e-05
4.41042e-05
4.41038e-05
4.4103e-05
4.41019e-05
4.41008e-05
4.40996e-05
4.40987e-05
4.40964e-05
4.40959e-05
4.40957e-05
4.40957e-05
4.40961e-05
4.40967e-05
4.40975e-05
4.40985e-05
4.40994e-05
4.41004e-05
4.41011e-05
4.41016e-05
4.41019e-05
4.41019e-05
4.41016e-05
4.41009e-05
4.41e-05
4.4099e-05
4.40979e-05
4.4097e-05
4.40949e-05
4.40944e-05
4.40942e-05
4.40942e-05
4.40944e-05
4.4095e-05
4.40957e-05
4.40966e-05
4.40974e-05
4.40983e-05
4.4099e-05
4.40995e-05
4.40999e-05
4.40999e-05
4.40997e-05
4.40991e-05
4.40983e-05
4.40973e-05
4.40964e-05
4.40956e-05
4.40936e-05
4.40931e-05
4.40928e-05
4.40928e-05
4.4093e-05
4.40935e-05
4.40941e-05
4.40949e-05
4.40957e-05
4.40965e-05
4.40971e-05
4.40977e-05
4.4098e-05
4.40981e-05
4.40979e-05
4.40974e-05
4.40967e-05
4.40959e-05
4.4095e-05
4.40942e-05
4.40924e-05
4.4092e-05
4.40916e-05
4.40916e-05
4.40917e-05
4.40921e-05
4.40926e-05
4.40934e-05
4.40941e-05
4.40949e-05
4.40955e-05
4.40961e-05
4.40964e-05
4.40965e-05
4.40964e-05
4.40959e-05
4.40953e-05
4.40946e-05
4.40938e-05
4.4093e-05
4.40914e-05
4.40909e-05
4.40906e-05
4.40905e-05
4.40906e-05
4.40909e-05
4.40914e-05
4.40921e-05
4.40927e-05
4.40935e-05
4.40941e-05
4.40947e-05
4.4095e-05
4.40951e-05
4.4095e-05
4.40947e-05
4.40941e-05
4.40934e-05
4.40927e-05
4.4092e-05
4.40905e-05
4.409e-05
4.40897e-05
4.40895e-05
4.40896e-05
4.40899e-05
4.40903e-05
4.40909e-05
4.40915e-05
4.40923e-05
4.40929e-05
4.40934e-05
4.40938e-05
4.40939e-05
4.40939e-05
4.40935e-05
4.4093e-05
4.40924e-05
4.40917e-05
4.40911e-05
4.40897e-05
4.40893e-05
4.40889e-05
4.40888e-05
4.40888e-05
4.4089e-05
4.40894e-05
4.409e-05
4.40906e-05
4.40913e-05
4.40918e-05
4.40924e-05
4.40927e-05
4.40929e-05
4.40929e-05
4.40926e-05
4.40921e-05
4.40916e-05
4.40909e-05
4.40903e-05
4.40891e-05
4.40886e-05
4.40883e-05
4.40881e-05
4.40881e-05
4.40883e-05
4.40886e-05
4.40891e-05
4.40897e-05
4.40904e-05
4.40909e-05
4.40914e-05
4.40918e-05
4.4092e-05
4.4092e-05
4.40917e-05
4.40913e-05
4.40908e-05
4.40902e-05
4.40896e-05
4.40886e-05
4.40881e-05
4.40877e-05
4.40875e-05
4.40875e-05
4.40877e-05
4.4088e-05
4.40885e-05
4.4089e-05
4.40897e-05
4.40902e-05
4.40907e-05
4.40911e-05
4.40913e-05
4.40913e-05
4.40911e-05
4.40908e-05
4.40902e-05
4.40896e-05
4.40891e-05
4.40881e-05
4.40876e-05
4.40873e-05
4.4087e-05
4.4087e-05
4.40872e-05
4.40874e-05
4.40879e-05
4.40884e-05
4.40891e-05
4.40896e-05
4.40901e-05
4.40905e-05
4.40907e-05
4.40907e-05
4.40905e-05
4.40902e-05
4.40897e-05
4.40891e-05
4.40886e-05
4.40878e-05
4.40874e-05
4.4087e-05
4.40867e-05
4.40867e-05
4.40869e-05
4.40871e-05
4.40876e-05
4.40881e-05
4.40887e-05
4.40892e-05
4.40898e-05
4.40901e-05
4.40904e-05
4.40904e-05
4.40902e-05
4.40899e-05
4.40894e-05
4.40888e-05
4.40884e-05
4.40877e-05
4.40873e-05
4.40869e-05
4.40866e-05
4.40866e-05
4.40867e-05
4.40869e-05
4.40874e-05
4.40879e-05
4.40885e-05
4.4089e-05
4.40895e-05
4.40899e-05
4.40901e-05
4.40902e-05
4.409e-05
4.40897e-05
4.40892e-05
4.40887e-05
4.40882e-05
4.41161e-05
4.41201e-05
4.41147e-05
4.41139e-05
4.41202e-05
4.41152e-05
4.41146e-05
4.41231e-05
4.41171e-05
4.41255e-05
4.41184e-05
4.41272e-05
4.41195e-05
4.41277e-05
4.41294e-05
4.41192e-05
4.41253e-05
4.41178e-05
4.41162e-05
4.41221e-05
2.42187e-05
2.50283e-05
2.67704e-05
2.93717e-05
3.25799e-05
3.60126e-05
3.92999e-05
4.22474e-05
4.47369e-05
4.6589e-05
4.75085e-05
4.71904e-05
4.54959e-05
4.25546e-05
3.87177e-05
3.44463e-05
3.03302e-05
2.68932e-05
2.4464e-05
2.31665e-05
2.31013e-05
2.85935e-05
3.44644e-05
3.97429e-05
4.38704e-05
4.67835e-05
4.87095e-05
4.99171e-05
5.05111e-05
5.01805e-05
4.83294e-05
4.47092e-05
3.97216e-05
3.41066e-05
2.8553e-05
2.35132e-05
1.95128e-05
1.70802e-05
1.66627e-05
1.85438e-05
3.45724e-05
3.98033e-05
4.36119e-05
4.61168e-05
4.76158e-05
4.83986e-05
4.87756e-05
4.89545e-05
4.87629e-05
4.68768e-05
4.20716e-05
3.49269e-05