/*--------------------------------*- C++ -*----------------------------------*\
| =========                 |                                                 |
| \\      /  F ield         | OpenFOAM: The Open Source CFD Toolbox           |
|  \\    /   O peration     | Version:  2.4.0                                 |
|   \\  /    A nd           | Web:      www.OpenFOAM.org                      |
|    \\/     M anipulation  |                                                 |
\*---------------------------------------------------------------------------*/
FoamFile
{
    version     2.0;
    format      ascii;
    class       volScalarField;
    location    "100";
    object      nut;
}
// * * * * * * * * * * * * * * * * * * * * * * * * * * * * * * * * * * * * * //

dimensions      [0 2 -1 0 0 0 0];

internalField   nonuniform List<scalar> 
283312
(
1.86856e-06
2.04899e-06
2.32204e-06
2.66736e-06
3.05062e-06
3.43002e-06
3.7713e-06
4.06089e-06
4.29852e-06
4.47493e-06
4.55937e-06
4.50966e-06
4.29805e-06
3.93159e-06
3.45068e-06
2.92272e-06
2.4305e-06
2.04265e-06
1.7953e-06
1.69583e-06
1.62482e-06
2.13288e-06
2.74784e-06
3.37173e-06
3.91928e-06
4.34822e-06
4.65747e-06
4.86356e-06
4.97751e-06
4.95778e-06
4.71605e-06
4.21922e-06
3.55288e-06
2.85926e-06
2.24808e-06
1.75342e-06
1.39366e-06
1.17996e-06
1.12263e-06
1.24235e-06
2.6748e-06
3.40863e-06
4.00116e-06
4.42431e-06
4.69682e-06
4.85277e-06
4.93097e-06
4.96602e-06
4.93015e-06
4.59287e-06
3.78946e-06
2.73955e-06
1.803e-06
1.15785e-06
7.88795e-07
6.24937e-07
6.29928e-07
8.14594e-07
1.22581e-06
1.86732e-06
3.49896e-06
4.12014e-06
4.50046e-06
4.70252e-06
4.79621e-06
4.83477e-06
4.85221e-06
4.86014e-06
4.73568e-06
3.96802e-06
2.67003e-06
1.47596e-06
7.32456e-07
3.84949e-07
2.65897e-07
2.98003e-07
4.98882e-07
9.58247e-07
1.71611e-06
2.63833e-06
3.77779e-06
4.31712e-06
4.59599e-06
4.71861e-06
4.76722e-06
4.7864e-06
4.79735e-06
4.79958e-06
4.53842e-06
3.34719e-06
1.82177e-06
7.58941e-07
2.875e-07
1.39621e-07
1.23735e-07
2.07234e-07
4.7315e-07
1.05062e-06
1.94847e-06
2.95465e-06
4.08493e-06
4.4832e-06
4.65697e-06
4.72082e-06
4.74253e-06
4.75147e-06
4.75945e-06
4.75717e-06
4.38234e-06
2.93448e-06
1.36823e-06
4.71673e-07
1.61308e-07
9.09423e-08
1.13692e-07
2.51893e-07
6.33063e-07
1.37035e-06
2.38406e-06
3.38172e-06
4.26006e-06
4.55479e-06
4.67059e-06
4.71017e-06
4.72411e-06
4.73095e-06
4.73814e-06
4.73466e-06
4.35988e-06
2.84743e-06
1.29518e-06
4.21568e-07
1.28869e-07
7.60945e-08
1.23983e-07
3.31826e-07
8.41971e-07
1.70815e-06
2.76311e-06
3.6864e-06
4.45547e-06
4.63004e-06
4.68929e-06
4.70704e-06
4.71314e-06
4.71716e-06
4.72273e-06
4.72855e-06
4.58203e-06
3.24268e-06
1.72555e-06
6.81964e-07
2.25354e-07
1.29784e-07
2.19548e-07
5.55647e-07
1.24854e-06
2.2515e-06
3.29114e-06
4.05534e-06
4.60984e-06
4.6778e-06
4.69764e-06
4.70335e-06
4.70606e-06
4.70895e-06
4.71321e-06
4.72067e-06
4.72103e-06
3.74182e-06
2.47341e-06
1.35692e-06
6.19527e-07
4.11046e-07
6.17758e-07
1.20351e-06
2.12781e-06
3.15631e-06
3.96466e-06
4.41923e-06
4.6762e-06
4.69386e-06
4.69838e-06
4.69983e-06
4.70107e-06
4.70308e-06
4.70622e-06
4.7125e-06
4.71625e-06
3.69862e-06
2.54132e-06
1.67475e-06
1.13016e-06
1.08398e-06
1.54939e-06
2.37916e-06
3.30611e-06
4.03135e-06
4.441e-06
4.61633e-06
4.69138e-06
4.69539e-06
4.69646e-06
4.69712e-06
4.69799e-06
4.69952e-06
4.70179e-06
4.70679e-06
4.70831e-06
3.59812e-06
2.43004e-06
1.70375e-06
1.51548e-06
1.88232e-06
2.64355e-06
3.48031e-06
4.11532e-06
4.46957e-06
4.62234e-06
4.67571e-06
4.69324e-06
4.69462e-06
4.69503e-06
4.69541e-06
4.69596e-06
4.69701e-06
4.69869e-06
4.70253e-06
4.70367e-06
3.53775e-06
2.4193e-06
1.8186e-06
1.84818e-06
2.47022e-06
3.3179e-06
4.01031e-06
4.41522e-06
4.59858e-06
4.66634e-06
4.6875e-06
4.69279e-06
4.69374e-06
4.69405e-06
4.69435e-06
4.69475e-06
4.69546e-06
4.69663e-06
4.69928e-06
4.69947e-06
3.48434e-06
2.3431e-06
1.75962e-06
1.93065e-06
2.69039e-06
3.55241e-06
4.16756e-06
4.49109e-06
4.62683e-06
4.67448e-06
4.6889e-06
4.69238e-06
4.69323e-06
4.69349e-06
4.6937e-06
4.69396e-06
4.6944e-06
4.69519e-06
4.69694e-06
4.69855e-06
3.46977e-06
2.3934e-06
1.87099e-06
2.06137e-06
2.80707e-06
3.6325e-06
4.2105e-06
4.5095e-06
4.63314e-06
4.67603e-06
4.68891e-06
4.6922e-06
4.69292e-06
4.69315e-06
4.6933e-06
4.69349e-06
4.69376e-06
4.69429e-06
4.69539e-06
4.69678e-06
3.42729e-06
2.27267e-06
1.8007e-06
2.10805e-06
2.90426e-06
3.71411e-06
4.25685e-06
4.52982e-06
4.64036e-06
4.67805e-06
4.68921e-06
4.6924e-06
4.69281e-06
4.69295e-06
4.69305e-06
4.69317e-06
4.69331e-06
4.69351e-06
4.69389e-06
4.69362e-06
3.64247e-06
2.38245e-06
1.96231e-06
2.38608e-06
3.20637e-06
3.93935e-06
4.37995e-06
4.58269e-06
4.65911e-06
4.68368e-06
4.6906e-06
4.69274e-06
4.69279e-06
4.69283e-06
4.6929e-06
4.69299e-06
4.69309e-06
4.69323e-06
4.69343e-06
4.69328e-06
4.56811e-06
4.49365e-06
4.52691e-06
4.5911e-06
4.63444e-06
4.65482e-06
4.67272e-06
4.68452e-06
4.69003e-06
4.69199e-06
4.69256e-06
4.69271e-06
4.69271e-06
4.69274e-06
4.69279e-06
4.69285e-06
4.69292e-06
4.69299e-06
4.69309e-06
4.69325e-06
4.69003e-06
4.68846e-06
4.6895e-06
4.69115e-06
4.69203e-06
4.69223e-06
4.69243e-06
4.69261e-06
4.69268e-06
4.69268e-06
4.69266e-06
4.69266e-06
4.69266e-06
4.69268e-06
4.69272e-06
4.69276e-06
4.69281e-06
4.69286e-06
4.6929e-06
4.69292e-06
4.69287e-06
4.69277e-06
4.69278e-06
4.69287e-06
4.6929e-06
4.69288e-06
4.69284e-06
4.69277e-06
4.69271e-06
4.69265e-06
4.69262e-06
4.69262e-06
4.69262e-06
4.69263e-06
4.69266e-06
4.69269e-06
4.69273e-06
4.69276e-06
4.69279e-06
4.69282e-06
4.6928e-06
4.69273e-06
4.6927e-06
4.69273e-06
4.69277e-06
4.69278e-06
4.69275e-06
4.6927e-06
4.69265e-06
4.6926e-06
4.69258e-06
4.69259e-06
4.69259e-06
4.69259e-06
4.69261e-06
4.69264e-06
4.69266e-06
4.69269e-06
4.69271e-06
4.69271e-06
4.6927e-06
4.69266e-06
4.69266e-06
4.69268e-06
4.6927e-06
4.6927e-06
4.69268e-06
4.69264e-06
4.6926e-06
4.69257e-06
4.69255e-06
4.69257e-06
4.69256e-06
4.69256e-06
4.69257e-06
4.69259e-06
4.69261e-06
4.69263e-06
4.69265e-06
4.69266e-06
4.69265e-06
4.69262e-06
4.69261e-06
4.69262e-06
4.69264e-06
4.69264e-06
4.69263e-06
4.6926e-06
4.69257e-06
4.69254e-06
4.69252e-06
4.69255e-06
4.69253e-06
4.69253e-06
4.69254e-06
4.69255e-06
4.69257e-06
4.69258e-06
4.69259e-06
4.6926e-06
4.6926e-06
4.69258e-06
4.69258e-06
4.69259e-06
4.6926e-06
4.6926e-06
4.69259e-06
4.69257e-06
4.69254e-06
4.69252e-06
4.6925e-06
4.69253e-06
4.69251e-06
4.69251e-06
4.69251e-06
4.69252e-06
4.69253e-06
4.69254e-06
4.69255e-06
4.69256e-06
4.69256e-06
4.69255e-06
4.69255e-06
4.69256e-06
4.69256e-06
4.69257e-06
4.69256e-06
4.69254e-06
4.69252e-06
4.6925e-06
4.69248e-06
4.69251e-06
4.69249e-06
4.69249e-06
4.69249e-06
4.69249e-06
4.6925e-06
4.69251e-06
4.69252e-06
4.69252e-06
4.69252e-06
4.69252e-06
4.69252e-06
4.69253e-06
4.69253e-06
4.69253e-06
4.69253e-06
4.69251e-06
4.69249e-06
4.69248e-06
4.69246e-06
4.69249e-06
4.69247e-06
4.69246e-06
4.69246e-06
4.69247e-06
4.69247e-06
4.69248e-06
4.69249e-06
4.69249e-06
4.69249e-06
4.69249e-06
4.69249e-06
4.6925e-06
4.69251e-06
4.69251e-06
4.6925e-06
4.69249e-06
4.69247e-06
4.69246e-06
4.69244e-06
4.69247e-06
4.69246e-06
4.69245e-06
4.69244e-06
4.69244e-06
4.69245e-06
4.69245e-06
4.69246e-06
4.69246e-06
4.69246e-06
4.69247e-06
4.69247e-06
4.69248e-06
4.69248e-06
4.69248e-06
4.69248e-06
4.69247e-06
4.69245e-06
4.69244e-06
4.69243e-06
4.69246e-06
4.69244e-06
4.69243e-06
4.69243e-06
4.69242e-06
4.69243e-06
4.69243e-06
4.69243e-06
4.69244e-06
4.69244e-06
4.69244e-06
4.69245e-06
4.69245e-06
4.69246e-06
4.69246e-06
4.69245e-06
4.69245e-06
4.69243e-06
4.69242e-06
4.69241e-06
4.69244e-06
4.69242e-06
4.69241e-06
4.69241e-06
4.69241e-06
4.69241e-06
4.69241e-06
4.69241e-06
4.69241e-06
4.69242e-06
4.69242e-06
4.69243e-06
4.69243e-06
4.69244e-06
4.69244e-06
4.69243e-06
4.69243e-06
4.69242e-06
4.69241e-06
4.6924e-06
4.69243e-06
4.69241e-06
4.6924e-06
4.69239e-06
4.69239e-06
4.69239e-06
4.69239e-06
4.69239e-06
4.69239e-06
4.6924e-06
4.6924e-06
4.69241e-06
4.69241e-06
4.69242e-06
4.69242e-06
4.69242e-06
4.69241e-06
4.6924e-06
4.69239e-06
4.69238e-06
4.69242e-06
4.6924e-06
4.69239e-06
4.69238e-06
4.69238e-06
4.69237e-06
4.69237e-06
4.69238e-06
4.69238e-06
4.69238e-06
4.69239e-06
4.69239e-06
4.6924e-06
4.6924e-06
4.6924e-06
4.6924e-06
4.69239e-06
4.69239e-06
4.69238e-06
4.69237e-06
4.69241e-06
4.69239e-06
4.69238e-06
4.69237e-06
4.69236e-06
4.69236e-06
4.69236e-06
4.69236e-06
4.69236e-06
4.69237e-06
4.69237e-06
4.69238e-06
4.69238e-06
4.69238e-06
4.69239e-06
4.69238e-06
4.69238e-06
4.69237e-06
4.69237e-06
4.69236e-06
4.6924e-06
4.69238e-06
4.69237e-06
4.69236e-06
4.69235e-06
4.69235e-06
4.69235e-06
4.69235e-06
4.69235e-06
4.69235e-06
4.69236e-06
4.69236e-06
4.69237e-06
4.69237e-06
4.69237e-06
4.69237e-06
4.69237e-06
4.69236e-06
4.69236e-06
4.69235e-06
4.69239e-06
4.69237e-06
4.69236e-06
4.69235e-06
4.69234e-06
4.69234e-06
4.69234e-06
4.69234e-06
4.69234e-06
4.69234e-06
4.69235e-06
4.69235e-06
4.69236e-06
4.69236e-06
4.69236e-06
4.69236e-06
4.69236e-06
4.69235e-06
4.69235e-06
4.69234e-06
4.69238e-06
4.69236e-06
4.69235e-06
4.69234e-06
4.69234e-06
4.69233e-06
4.69233e-06
4.69233e-06
4.69233e-06
4.69233e-06
4.69234e-06
4.69234e-06
4.69235e-06
4.69235e-06
4.69235e-06
4.69235e-06
4.69235e-06
4.69234e-06
4.69234e-06
4.69233e-06
4.69238e-06
4.69236e-06
4.69235e-06
4.69234e-06
4.69233e-06
4.69232e-06
4.69232e-06
4.69232e-06
4.69232e-06
4.69232e-06
4.69233e-06
4.69233e-06
4.69234e-06
4.69234e-06
4.69234e-06
4.69234e-06
4.69234e-06
4.69234e-06
4.69233e-06
4.69233e-06
4.69237e-06
4.69235e-06
4.69234e-06
4.69233e-06
4.69232e-06
4.69232e-06
4.69232e-06
4.69231e-06
4.69232e-06
4.69232e-06
4.69232e-06
4.69233e-06
4.69233e-06
4.69234e-06
4.69234e-06
4.69234e-06
4.69233e-06
4.69233e-06
4.69233e-06
4.69232e-06
4.69237e-06
4.69235e-06
4.69234e-06
4.69233e-06
4.69232e-06
4.69232e-06
4.69231e-06
4.69231e-06
4.69231e-06
4.69232e-06
4.69232e-06
4.69233e-06
4.69233e-06
4.69233e-06
4.69233e-06
4.69233e-06
4.69233e-06
4.69233e-06
4.69232e-06
4.69232e-06
4.69238e-06
4.69236e-06
4.69235e-06
4.69234e-06
4.69233e-06
4.69233e-06
4.69233e-06
4.69232e-06
4.69233e-06
4.69233e-06
4.69233e-06
4.69234e-06
4.69234e-06
4.69234e-06
4.69234e-06
4.69234e-06
4.69234e-06
4.69234e-06
4.69233e-06
4.69233e-06
4.69459e-06
4.69491e-06
4.69451e-06
4.69444e-06
4.69492e-06
4.69454e-06
4.69446e-06
4.69507e-06
4.6946e-06
4.69517e-06
4.69462e-06
4.69523e-06
4.69464e-06
4.69523e-06
4.69536e-06
4.69461e-06
4.69508e-06
4.69455e-06
4.69445e-06
4.69494e-06
1.66216e-06
1.83022e-06
2.09599e-06
2.44479e-06
2.84635e-06
3.2594e-06
3.64222e-06
3.9739e-06
4.24682e-06
4.44591e-06
4.53647e-06
4.47503e-06
4.23652e-06
3.83451e-06
3.31929e-06
2.76453e-06
2.2572e-06
1.86376e-06
1.61424e-06
1.51019e-06
1.58914e-06
2.12415e-06
2.76192e-06
3.40027e-06
3.95309e-06
4.37997e-06
4.68298e-06
4.88144e-06
4.98701e-06
4.95548e-06
4.69644e-06
4.17974e-06
3.49574e-06
2.78862e-06
2.16655e-06
1.66553e-06
1.30477e-06
1.09598e-06
1.04996e-06
1.18805e-06
2.72868e-06
3.46388e-06
4.04905e-06
4.46073e-06
4.72112e-06
4.86625e-06
4.93757e-06
4.96905e-06
4.93126e-06
4.59013e-06
3.78398e-06
2.73448e-06
1.7964e-06
1.14613e-06
7.71247e-07
6.0565e-07
6.15016e-07
8.13461e-07
1.24808e-06
1.9136e-06
3.58077e-06
4.17756e-06
4.53601e-06
4.72248e-06
4.80689e-06
4.8411e-06
4.85696e-06
4.86483e-06
4.747e-06
3.99304e-06
2.71033e-06
1.51688e-06
7.58926e-07
3.97174e-07
2.72665e-07
3.10361e-07
5.31691e-07
1.02548e-06
1.81357e-06
2.74154e-06
3.86635e-06
4.36887e-06
4.62294e-06
4.7325e-06
4.77542e-06
4.79251e-06
4.80291e-06
4.80599e-06
4.56505e-06
3.40255e-06
1.88911e-06
8.0465e-07
3.04376e-07
1.42813e-07
1.27032e-07
2.25492e-07
5.299e-07
1.15928e-06
2.08807e-06
3.08343e-06
4.15877e-06
4.5207e-06
4.67515e-06
4.73088e-06
4.74986e-06
4.75803e-06
4.76592e-06
4.76505e-06
4.42008e-06
3.00214e-06
1.43755e-06
5.08455e-07
1.7118e-07
9.32197e-08
1.22214e-07
2.8854e-07
7.24359e-07
1.51507e-06
2.54185e-06
3.50612e-06
4.32252e-06
4.58454e-06
4.68539e-06
4.71943e-06
4.73162e-06
4.73796e-06
4.74507e-06
4.74303e-06
4.39826e-06
2.90533e-06
1.35364e-06
4.53972e-07
1.38452e-07
8.20478e-08
1.45179e-07
3.98961e-07
9.74535e-07
1.88384e-06
2.9291e-06
3.80179e-06
4.49693e-06
4.64924e-06
4.70002e-06
4.71512e-06
4.72054e-06
4.72441e-06
4.72996e-06
4.73609e-06
4.6025e-06
3.25743e-06
1.75058e-06
7.13695e-07
2.46654e-07
1.50389e-07
2.68483e-07
6.64455e-07
1.41686e-06
2.43642e-06
3.43771e-06
4.14171e-06
4.6309e-06
4.68923e-06
4.70606e-06
4.71098e-06
4.71351e-06
4.71637e-06
4.72059e-06
4.72807e-06
4.72879e-06
3.71099e-06
2.44005e-06
1.36107e-06
6.5744e-07
4.73661e-07
7.24374e-07
1.36278e-06
2.30952e-06
3.30846e-06
4.05854e-06
4.46529e-06
4.68726e-06
4.70224e-06
4.70607e-06
4.70738e-06
4.7086e-06
4.71062e-06
4.71374e-06
4.72004e-06
4.7236e-06
3.66181e-06
2.50074e-06
1.66213e-06
1.16471e-06
1.17233e-06
1.68607e-06
2.53557e-06
3.43775e-06
4.11378e-06
4.48246e-06
4.63604e-06
4.69973e-06
4.70313e-06
4.70407e-06
4.70472e-06
4.70558e-06
4.70711e-06
4.70937e-06
4.71439e-06
4.71567e-06
3.55928e-06
2.39292e-06
1.68906e-06
1.53919e-06
1.95475e-06
2.74516e-06
3.57346e-06
4.1773e-06
4.503e-06
4.63966e-06
4.68633e-06
4.70109e-06
4.70228e-06
4.70266e-06
4.70304e-06
4.7036e-06
4.70466e-06
4.70632e-06
4.71017e-06
4.7111e-06
3.49803e-06
2.38558e-06
1.80514e-06
1.86367e-06
2.51794e-06
3.37731e-06
4.05813e-06
4.44499e-06
4.61567e-06
4.67728e-06
4.6961e-06
4.70058e-06
4.70141e-06
4.70171e-06
4.702e-06
4.70241e-06
4.70312e-06
4.70429e-06
4.70694e-06
4.70696e-06
3.4442e-06
2.30845e-06
1.74488e-06
1.9432e-06
2.72749e-06
3.59558e-06
4.20122e-06
4.51258e-06
4.64031e-06
4.68417e-06
4.69716e-06
4.70016e-06
4.70091e-06
4.70116e-06
4.70136e-06
4.70163e-06
4.70207e-06
4.70287e-06
4.70462e-06
4.70612e-06
3.42984e-06
2.36301e-06
1.85864e-06
2.07277e-06
2.84017e-06
3.67107e-06
4.24085e-06
4.52924e-06
4.64589e-06
4.68548e-06
4.69711e-06
4.69997e-06
4.70061e-06
4.70082e-06
4.70097e-06
4.70116e-06
4.70144e-06
4.70198e-06
4.70308e-06
4.7044e-06
3.38571e-06
2.23869e-06
1.78884e-06
2.1219e-06
2.93823e-06
3.75154e-06
4.28557e-06
4.54842e-06
4.65254e-06
4.68728e-06
4.69734e-06
4.70012e-06
4.70049e-06
4.70062e-06
4.70073e-06
4.70085e-06
4.701e-06
4.7012e-06
4.70158e-06
4.70132e-06
3.60615e-06
2.33648e-06
1.94579e-06
2.4045e-06
3.24454e-06
3.97582e-06
4.40537e-06
4.59867e-06
4.66995e-06
4.69238e-06
4.69856e-06
4.70041e-06
4.70045e-06
4.7005e-06
4.70057e-06
4.70066e-06
4.70078e-06
4.70091e-06
4.70112e-06
4.70096e-06
4.57065e-06
4.4985e-06
4.53619e-06
4.60167e-06
4.6441e-06
4.6642e-06
4.68171e-06
4.69292e-06
4.698e-06
4.69976e-06
4.70025e-06
4.70036e-06
4.70038e-06
4.70041e-06
4.70046e-06
4.70052e-06
4.70059e-06
4.70067e-06
4.70078e-06
4.70094e-06
4.69761e-06
4.69613e-06
4.69727e-06
4.69893e-06
4.69977e-06
4.69996e-06
4.70014e-06
4.7003e-06
4.70036e-06
4.70035e-06
4.70034e-06
4.70032e-06
4.70032e-06
4.70035e-06
4.70039e-06
4.70043e-06
4.70049e-06
4.70054e-06
4.70058e-06
4.7006e-06
4.70056e-06
4.70046e-06
4.70047e-06
4.70056e-06
4.70059e-06
4.70056e-06
4.70051e-06
4.70044e-06
4.70038e-06
4.70032e-06
4.70029e-06
4.70028e-06
4.70028e-06
4.7003e-06
4.70033e-06
4.70036e-06
4.7004e-06
4.70044e-06
4.70047e-06
4.7005e-06
4.70048e-06
4.70041e-06
4.70038e-06
4.70042e-06
4.70045e-06
4.70046e-06
4.70042e-06
4.70037e-06
4.70032e-06
4.70027e-06
4.70025e-06
4.70025e-06
4.70024e-06
4.70026e-06
4.70028e-06
4.70031e-06
4.70034e-06
4.70036e-06
4.70038e-06
4.70039e-06
4.70038e-06
4.70035e-06
4.70034e-06
4.70036e-06
4.70038e-06
4.70037e-06
4.70035e-06
4.70031e-06
4.70027e-06
4.70024e-06
4.70022e-06
4.70022e-06
4.70021e-06
4.70022e-06
4.70024e-06
4.70026e-06
4.70028e-06
4.7003e-06
4.70032e-06
4.70033e-06
4.70032e-06
4.7003e-06
4.70029e-06
4.7003e-06
4.70032e-06
4.70032e-06
4.7003e-06
4.70027e-06
4.70024e-06
4.70021e-06
4.70019e-06
4.7002e-06
4.70019e-06
4.70019e-06
4.7002e-06
4.70022e-06
4.70024e-06
4.70025e-06
4.70027e-06
4.70027e-06
4.70027e-06
4.70026e-06
4.70026e-06
4.70027e-06
4.70028e-06
4.70028e-06
4.70026e-06
4.70024e-06
4.70021e-06
4.70019e-06
4.70017e-06
4.70018e-06
4.70017e-06
4.70017e-06
4.70017e-06
4.70019e-06
4.7002e-06
4.70021e-06
4.70022e-06
4.70023e-06
4.70023e-06
4.70022e-06
4.70022e-06
4.70023e-06
4.70024e-06
4.70024e-06
4.70023e-06
4.70021e-06
4.70018e-06
4.70016e-06
4.70015e-06
4.70016e-06
4.70014e-06
4.70014e-06
4.70015e-06
4.70016e-06
4.70017e-06
4.70018e-06
4.70019e-06
4.70019e-06
4.70019e-06
4.70019e-06
4.70019e-06
4.7002e-06
4.70021e-06
4.7002e-06
4.7002e-06
4.70018e-06
4.70016e-06
4.70014e-06
4.70013e-06
4.70014e-06
4.70013e-06
4.70012e-06
4.70012e-06
4.70013e-06
4.70014e-06
4.70014e-06
4.70015e-06
4.70016e-06
4.70016e-06
4.70016e-06
4.70016e-06
4.70017e-06
4.70018e-06
4.70018e-06
4.70017e-06
4.70015e-06
4.70014e-06
4.70012e-06
4.70011e-06
4.70012e-06
4.70011e-06
4.7001e-06
4.7001e-06
4.7001e-06
4.70011e-06
4.70012e-06
4.70012e-06
4.70013e-06
4.70013e-06
4.70013e-06
4.70014e-06
4.70015e-06
4.70015e-06
4.70015e-06
4.70014e-06
4.70013e-06
4.70012e-06
4.7001e-06
4.70009e-06
4.7001e-06
4.70009e-06
4.70008e-06
4.70008e-06
4.70008e-06
4.70009e-06
4.70009e-06
4.7001e-06
4.7001e-06
4.70011e-06
4.70011e-06
4.70011e-06
4.70012e-06
4.70012e-06
4.70013e-06
4.70012e-06
4.70011e-06
4.7001e-06
4.70008e-06
4.70007e-06
4.70009e-06
4.70008e-06
4.70007e-06
4.70006e-06
4.70006e-06
4.70007e-06
4.70007e-06
4.70007e-06
4.70008e-06
4.70008e-06
4.70009e-06
4.70009e-06
4.7001e-06
4.7001e-06
4.7001e-06
4.7001e-06
4.70009e-06
4.70008e-06
4.70007e-06
4.70006e-06
4.70008e-06
4.70006e-06
4.70005e-06
4.70005e-06
4.70005e-06
4.70005e-06
4.70005e-06
4.70005e-06
4.70006e-06
4.70006e-06
4.70007e-06
4.70007e-06
4.70008e-06
4.70008e-06
4.70008e-06
4.70008e-06
4.70007e-06
4.70006e-06
4.70005e-06
4.70004e-06
4.70006e-06
4.70005e-06
4.70004e-06
4.70004e-06
4.70003e-06
4.70003e-06
4.70003e-06
4.70004e-06
4.70004e-06
4.70005e-06
4.70005e-06
4.70006e-06
4.70006e-06
4.70007e-06
4.70007e-06
4.70006e-06
4.70006e-06
4.70005e-06
4.70004e-06
4.70003e-06
4.70005e-06
4.70004e-06
4.70003e-06
4.70002e-06
4.70002e-06
4.70002e-06
4.70002e-06
4.70002e-06
4.70003e-06
4.70003e-06
4.70003e-06
4.70004e-06
4.70005e-06
4.70005e-06
4.70005e-06
4.70005e-06
4.70004e-06
4.70004e-06
4.70003e-06
4.70002e-06
4.70004e-06
4.70003e-06
4.70002e-06
4.70001e-06
4.70001e-06
4.70001e-06
4.70001e-06
4.70001e-06
4.70001e-06
4.70002e-06
4.70002e-06
4.70003e-06
4.70003e-06
4.70004e-06
4.70004e-06
4.70003e-06
4.70003e-06
4.70002e-06
4.70002e-06
4.70001e-06
4.70003e-06
4.70002e-06
4.70001e-06
4.7e-06
4.7e-06
4.7e-06
4.7e-06
4.7e-06
4.7e-06
4.7e-06
4.70001e-06
4.70001e-06
4.70002e-06
4.70002e-06
4.70002e-06
4.70002e-06
4.70002e-06
4.70001e-06
4.70001e-06
4.7e-06
4.70003e-06
4.70001e-06
4.7e-06
4.69999e-06
4.69999e-06
4.69999e-06
4.69999e-06
4.69999e-06
4.69999e-06
4.69999e-06
4.7e-06
4.7e-06
4.70001e-06
4.70001e-06
4.70001e-06
4.70001e-06
4.70001e-06
4.7e-06
4.7e-06
4.69999e-06
4.70002e-06
4.70001e-06
4.7e-06
4.69999e-06
4.69998e-06
4.69998e-06
4.69998e-06
4.69998e-06
4.69998e-06
4.69999e-06
4.69999e-06
4.7e-06
4.7e-06
4.70001e-06
4.70001e-06
4.70001e-06
4.7e-06
4.7e-06
4.69999e-06
4.69999e-06
4.70002e-06
4.7e-06
4.69999e-06
4.69998e-06
4.69998e-06
4.69998e-06
4.69997e-06
4.69997e-06
4.69998e-06
4.69998e-06
4.69999e-06
4.69999e-06
4.7e-06
4.7e-06
4.7e-06
4.7e-06
4.7e-06
4.69999e-06
4.69999e-06
4.69998e-06
4.70002e-06
4.7e-06
4.69999e-06
4.69998e-06
4.69998e-06
4.69997e-06
4.69997e-06
4.69997e-06
4.69997e-06
4.69998e-06
4.69998e-06
4.69999e-06
4.69999e-06
4.7e-06
4.7e-06
4.7e-06
4.69999e-06
4.69999e-06
4.69998e-06
4.69998e-06
4.70003e-06
4.70001e-06
4.7e-06
4.69999e-06
4.69999e-06
4.69998e-06
4.69998e-06
4.69998e-06
4.69998e-06
4.69999e-06
4.69999e-06
4.7e-06
4.7e-06
4.7e-06
4.7e-06
4.7e-06
4.7e-06
4.7e-06
4.69999e-06
4.69999e-06
4.70215e-06
4.70244e-06
4.70207e-06
4.70203e-06
4.70247e-06
4.70212e-06
4.70205e-06
4.70261e-06
4.70217e-06
4.7027e-06
4.70219e-06
4.70276e-06
4.70221e-06
4.70276e-06
4.70287e-06
4.70218e-06
4.70261e-06
4.70212e-06
4.70204e-06
4.70249e-06
1.47274e-06
1.63244e-06
1.89502e-06
2.25047e-06
2.67184e-06
3.11694e-06
3.53794e-06
3.90724e-06
4.21051e-06
4.42737e-06
4.5194e-06
4.44214e-06
4.17374e-06
3.73497e-06
3.18556e-06
2.60653e-06
2.08781e-06
1.6925e-06
1.44401e-06
1.33837e-06
1.56916e-06
2.13089e-06
2.78941e-06
3.43914e-06
3.99381e-06
4.41599e-06
4.71081e-06
4.90045e-06
4.99689e-06
4.95293e-06
4.67607e-06
4.13947e-06
3.43844e-06
2.71897e-06
2.0881e-06
1.58242e-06
1.2227e-06
1.02116e-06
9.88907e-07
1.14771e-06
2.79228e-06
3.52562e-06
4.1005e-06
4.49855e-06
4.74553e-06
4.87947e-06
4.9441e-06
4.97224e-06
4.93265e-06
4.58783e-06
3.77931e-06
2.73078e-06
1.79188e-06
1.13713e-06
7.56946e-07
5.90988e-07
6.06871e-07
8.21986e-07
1.28229e-06
1.97167e-06
3.66607e-06
4.23579e-06
4.57118e-06
4.74186e-06
4.81727e-06
4.84743e-06
4.86189e-06
4.86976e-06
4.75846e-06
4.01805e-06
2.75102e-06
1.55995e-06
7.89212e-07
4.1374e-07
2.84528e-07
3.29928e-07
5.75321e-07
1.10588e-06
1.92239e-06
2.85165e-06
3.95539e-06
4.41969e-06
4.64908e-06
4.74602e-06
4.78361e-06
4.79876e-06
4.8087e-06
4.8126e-06
4.59182e-06
3.45788e-06
1.95842e-06
8.55549e-07
3.26538e-07
1.50447e-07
1.36133e-07
2.54321e-07
6.03316e-07
1.28526e-06
2.23884e-06
3.21606e-06
4.23104e-06
4.55679e-06
4.6927e-06
4.74083e-06
4.75729e-06
4.76477e-06
4.7726e-06
4.77306e-06
4.45759e-06
3.06918e-06
1.51008e-06
5.51876e-07
1.86534e-07
1.00508e-07
1.38997e-07
3.41003e-07
8.36543e-07
1.67657e-06
2.70686e-06
3.6305e-06
4.38218e-06
4.61274e-06
4.69964e-06
4.72862e-06
4.73925e-06
4.74514e-06
4.7522e-06
4.75152e-06
4.43633e-06
2.96234e-06
1.4153e-06
4.93511e-07
1.54302e-07
9.46374e-08
1.7931e-07
4.88034e-07
1.12943e-06
2.07259e-06
3.09731e-06
3.91398e-06
4.53601e-06
4.66751e-06
4.71057e-06
4.72329e-06
4.72811e-06
4.73184e-06
4.73737e-06
4.74381e-06
4.62286e-06
3.27121e-06
1.77711e-06
7.51088e-07
2.76019e-07
1.82014e-07
3.36597e-07
7.9737e-07
1.60328e-06
2.62755e-06
3.58172e-06
4.22372e-06
4.6509e-06
4.70042e-06
4.71455e-06
4.71877e-06
4.72114e-06
4.72396e-06
4.72816e-06
4.73565e-06
4.73671e-06
3.67902e-06
2.40752e-06
1.36735e-06
7.01696e-07
5.49881e-07
8.49807e-07
1.53814e-06
2.4979e-06
3.45864e-06
4.14796e-06
4.50841e-06
4.69814e-06
4.7107e-06
4.71391e-06
4.7151e-06
4.71631e-06
4.71833e-06
4.72144e-06
4.72775e-06
4.73112e-06
3.62361e-06
2.46053e-06
1.65061e-06
1.20214e-06
1.26752e-06
1.83034e-06
2.69481e-06
3.56681e-06
4.19222e-06
4.52136e-06
4.65471e-06
4.70817e-06
4.71104e-06
4.71187e-06
4.7125e-06
4.71336e-06
4.71489e-06
4.71713e-06
4.72216e-06
4.72319e-06
3.51907e-06
2.35627e-06
1.67543e-06
1.56473e-06
2.02959e-06
2.84751e-06
3.6648e-06
4.23672e-06
4.53473e-06
4.65627e-06
4.6968e-06
4.70909e-06
4.71012e-06
4.71047e-06
4.71085e-06
4.71142e-06
4.71248e-06
4.71414e-06
4.71799e-06
4.7187e-06
3.45681e-06
2.3524e-06
1.79248e-06
1.88038e-06
2.56684e-06
3.43676e-06
4.10505e-06
4.47386e-06
4.63229e-06
4.68811e-06
4.70478e-06
4.70853e-06
4.70926e-06
4.70954e-06
4.70984e-06
4.71025e-06
4.71096e-06
4.71213e-06
4.71478e-06
4.71461e-06
3.40265e-06
2.27426e-06
1.73087e-06
1.95675e-06
2.76561e-06
3.63908e-06
4.23461e-06
4.53371e-06
4.65362e-06
4.69388e-06
4.70554e-06
4.70811e-06
4.70877e-06
4.709e-06
4.70921e-06
4.70948e-06
4.70993e-06
4.71073e-06
4.71247e-06
4.71386e-06
3.38861e-06
2.33335e-06
1.84695e-06
2.08504e-06
2.87425e-06
3.71008e-06
4.27109e-06
4.54874e-06
4.65853e-06
4.69496e-06
4.70543e-06
4.70791e-06
4.70847e-06
4.70867e-06
4.70883e-06
4.70902e-06
4.7093e-06
4.70984e-06
4.71094e-06
4.71219e-06
3.34281e-06
2.20541e-06
1.77784e-06
2.13677e-06
2.9732e-06
3.78938e-06
4.31418e-06
4.5668e-06
4.66464e-06
4.69656e-06
4.70561e-06
4.70802e-06
4.70835e-06
4.70847e-06
4.70858e-06
4.7087e-06
4.70886e-06
4.70906e-06
4.70945e-06
4.7092e-06
3.56837e-06
2.29034e-06
1.93044e-06
2.42454e-06
3.28383e-06
4.01247e-06
4.43055e-06
4.61445e-06
4.68075e-06
4.70116e-06
4.70666e-06
4.70825e-06
4.70829e-06
4.70835e-06
4.70843e-06
4.70852e-06
4.70863e-06
4.70877e-06
4.70898e-06
4.70883e-06
4.57315e-06
4.50365e-06
4.54584e-06
4.61249e-06
4.6539e-06
4.67376e-06
4.69084e-06
4.70145e-06
4.70613e-06
4.7077e-06
4.70812e-06
4.7082e-06
4.70822e-06
4.70826e-06
4.70831e-06
4.70838e-06
4.70845e-06
4.70853e-06
4.70864e-06
4.70881e-06
4.70536e-06
4.70398e-06
4.70522e-06
4.70688e-06
4.70769e-06
4.70786e-06
4.70803e-06
4.70817e-06
4.70822e-06
4.7082e-06
4.70818e-06
4.70815e-06
4.70816e-06
4.70819e-06
4.70823e-06
4.70829e-06
4.70834e-06
4.7084e-06
4.70844e-06
4.70846e-06
4.70842e-06
4.70832e-06
4.70834e-06
4.70843e-06
4.70845e-06
4.70842e-06
4.70836e-06
4.70829e-06
4.70822e-06
4.70817e-06
4.70814e-06
4.70811e-06
4.70812e-06
4.70814e-06
4.70817e-06
4.70821e-06
4.70825e-06
4.70829e-06
4.70833e-06
4.70836e-06
4.70834e-06
4.70827e-06
4.70824e-06
4.70828e-06
4.70831e-06
4.70831e-06
4.70827e-06
4.70822e-06
4.70816e-06
4.70812e-06
4.70809e-06
4.70808e-06
4.70808e-06
4.7081e-06
4.70812e-06
4.70815e-06
4.70819e-06
4.70821e-06
4.70824e-06
4.70824e-06
4.70824e-06
4.7082e-06
4.7082e-06
4.70822e-06
4.70823e-06
4.70823e-06
4.7082e-06
4.70816e-06
4.70812e-06
4.70809e-06
4.70806e-06
4.70805e-06
4.70805e-06
4.70806e-06
4.70808e-06
4.7081e-06
4.70813e-06
4.70815e-06
4.70817e-06
4.70818e-06
4.70818e-06
4.70815e-06
4.70814e-06
4.70816e-06
4.70817e-06
4.70817e-06
4.70815e-06
4.70812e-06
4.70808e-06
4.70805e-06
4.70804e-06
4.70803e-06
4.70802e-06
4.70803e-06
4.70805e-06
4.70806e-06
4.70808e-06
4.7081e-06
4.70812e-06
4.70812e-06
4.70812e-06
4.70811e-06
4.70811e-06
4.70812e-06
4.70813e-06
4.70812e-06
4.70811e-06
4.70808e-06
4.70805e-06
4.70803e-06
4.70801e-06
4.70801e-06
4.708e-06
4.708e-06
4.70801e-06
4.70803e-06
4.70804e-06
4.70806e-06
4.70807e-06
4.70808e-06
4.70808e-06
4.70807e-06
4.70807e-06
4.70808e-06
4.70809e-06
4.70809e-06
4.70807e-06
4.70805e-06
4.70803e-06
4.708e-06
4.70799e-06
4.70799e-06
4.70798e-06
4.70798e-06
4.70799e-06
4.708e-06
4.70801e-06
4.70802e-06
4.70803e-06
4.70804e-06
4.70804e-06
4.70804e-06
4.70804e-06
4.70805e-06
4.70805e-06
4.70805e-06
4.70804e-06
4.70802e-06
4.708e-06
4.70798e-06
4.70797e-06
4.70797e-06
4.70796e-06
4.70796e-06
4.70796e-06
4.70797e-06
4.70798e-06
4.70799e-06
4.708e-06
4.708e-06
4.70801e-06
4.70801e-06
4.70801e-06
4.70802e-06
4.70802e-06
4.70802e-06
4.70801e-06
4.708e-06
4.70798e-06
4.70796e-06
4.70795e-06
4.70795e-06
4.70794e-06
4.70793e-06
4.70794e-06
4.70794e-06
4.70795e-06
4.70796e-06
4.70797e-06
4.70797e-06
4.70798e-06
4.70798e-06
4.70798e-06
4.70799e-06
4.70799e-06
4.70799e-06
4.70799e-06
4.70797e-06
4.70796e-06
4.70794e-06
4.70793e-06
4.70793e-06
4.70792e-06
4.70792e-06
4.70792e-06
4.70792e-06
4.70793e-06
4.70793e-06
4.70794e-06
4.70795e-06
4.70795e-06
4.70795e-06
4.70796e-06
4.70796e-06
4.70797e-06
4.70797e-06
4.70796e-06
4.70795e-06
4.70794e-06
4.70792e-06
4.70791e-06
4.70792e-06
4.7079e-06
4.7079e-06
4.7079e-06
4.7079e-06
4.7079e-06
4.70791e-06
4.70792e-06
4.70792e-06
4.70793e-06
4.70793e-06
4.70794e-06
4.70794e-06
4.70795e-06
4.70794e-06
4.70794e-06
4.70793e-06
4.70792e-06
4.70791e-06
4.7079e-06
4.7079e-06
4.70789e-06
4.70788e-06
4.70788e-06
4.70788e-06
4.70789e-06
4.70789e-06
4.70789e-06
4.7079e-06
4.70791e-06
4.70791e-06
4.70792e-06
4.70792e-06
4.70792e-06
4.70792e-06
4.70792e-06
4.70791e-06
4.7079e-06
4.70789e-06
4.70788e-06
4.70789e-06
4.70788e-06
4.70787e-06
4.70787e-06
4.70787e-06
4.70787e-06
4.70787e-06
4.70788e-06
4.70788e-06
4.70789e-06
4.70789e-06
4.7079e-06
4.7079e-06
4.70791e-06
4.70791e-06
4.7079e-06
4.7079e-06
4.70789e-06
4.70788e-06
4.70787e-06
4.70788e-06
4.70787e-06
4.70786e-06
4.70785e-06
4.70785e-06
4.70785e-06
4.70786e-06
4.70786e-06
4.70786e-06
4.70787e-06
4.70787e-06
4.70788e-06
4.70789e-06
4.70789e-06
4.70789e-06
4.70789e-06
4.70788e-06
4.70787e-06
4.70786e-06
4.70786e-06
4.70787e-06
4.70786e-06
4.70785e-06
4.70784e-06
4.70784e-06
4.70784e-06
4.70784e-06
4.70785e-06
4.70785e-06
4.70786e-06
4.70786e-06
4.70787e-06
4.70787e-06
4.70787e-06
4.70788e-06
4.70787e-06
4.70787e-06
4.70786e-06
4.70785e-06
4.70784e-06
4.70786e-06
4.70785e-06
4.70784e-06
4.70783e-06
4.70783e-06
4.70783e-06
4.70783e-06
4.70783e-06
4.70784e-06
4.70784e-06
4.70785e-06
4.70785e-06
4.70786e-06
4.70786e-06
4.70786e-06
4.70786e-06
4.70786e-06
4.70785e-06
4.70784e-06
4.70784e-06
4.70785e-06
4.70784e-06
4.70783e-06
4.70783e-06
4.70782e-06
4.70782e-06
4.70782e-06
4.70782e-06
4.70783e-06
4.70783e-06
4.70784e-06
4.70784e-06
4.70785e-06
4.70785e-06
4.70785e-06
4.70785e-06
4.70785e-06
4.70784e-06
4.70784e-06
4.70783e-06
4.70785e-06
4.70783e-06
4.70783e-06
4.70782e-06
4.70782e-06
4.70781e-06
4.70781e-06
4.70782e-06
4.70782e-06
4.70782e-06
4.70783e-06
4.70784e-06
4.70784e-06
4.70784e-06
4.70785e-06
4.70784e-06
4.70784e-06
4.70784e-06
4.70783e-06
4.70782e-06
4.70784e-06
4.70783e-06
4.70782e-06
4.70781e-06
4.70781e-06
4.70781e-06
4.70781e-06
4.70781e-06
4.70781e-06
4.70782e-06
4.70782e-06
4.70783e-06
4.70783e-06
4.70784e-06
4.70784e-06
4.70784e-06
4.70783e-06
4.70783e-06
4.70782e-06
4.70782e-06
4.70784e-06
4.70783e-06
4.70782e-06
4.70781e-06
4.70781e-06
4.70781e-06
4.70781e-06
4.70781e-06
4.70781e-06
4.70782e-06
4.70782e-06
4.70783e-06
4.70783e-06
4.70783e-06
4.70784e-06
4.70783e-06
4.70783e-06
4.70783e-06
4.70782e-06
4.70782e-06
4.70785e-06
4.70784e-06
4.70783e-06
4.70782e-06
4.70782e-06
4.70782e-06
4.70782e-06
4.70782e-06
4.70782e-06
4.70782e-06
4.70783e-06
4.70783e-06
4.70784e-06
4.70784e-06
4.70784e-06
4.70784e-06
4.70784e-06
4.70783e-06
4.70783e-06
4.70782e-06
4.70989e-06
4.71015e-06
4.70983e-06
4.70979e-06
4.71019e-06
4.70987e-06
4.70982e-06
4.71033e-06
4.70993e-06
4.71042e-06
4.70995e-06
4.71047e-06
4.70997e-06
4.71047e-06
4.71057e-06
4.70993e-06
4.71032e-06
4.70988e-06
4.70981e-06
4.71021e-06
1.30133e-06
1.45648e-06
1.71967e-06
2.0847e-06
2.52722e-06
3.00259e-06
3.45839e-06
3.86069e-06
4.18921e-06
4.41879e-06
4.50749e-06
4.41027e-06
4.10912e-06
3.63274e-06
3.05017e-06
2.45002e-06
1.92386e-06
1.53026e-06
1.28575e-06
1.18131e-06
1.56453e-06
2.15268e-06
2.82977e-06
3.48759e-06
4.04055e-06
4.45545e-06
4.74025e-06
4.92006e-06
5.0068e-06
4.94984e-06
4.65472e-06
4.0983e-06
3.38103e-06
2.65051e-06
2.0126e-06
1.50389e-06
1.14724e-06
9.55203e-07
9.39133e-07
1.12104e-06
2.86523e-06
3.59329e-06
4.1549e-06
4.53726e-06
4.76975e-06
4.8924e-06
4.95056e-06
4.9756e-06
4.9343e-06
4.58577e-06
3.77504e-06
2.72795e-06
1.78891e-06
1.13035e-06
7.45641e-07
5.80796e-07
6.05496e-07
8.40365e-07