/*--------------------------------*- C++ -*----------------------------------*\
| =========                 |                                                 |
| \\      /  F ield         | OpenFOAM: The Open Source CFD Toolbox           |
|  \\    /   O peration     | Version:  2.4.0                                 |
|   \\  /    A nd           | Web:      www.OpenFOAM.org                      |
|    \\/     M anipulation  |                                                 |
\*---------------------------------------------------------------------------*/
FoamFile
{
    version     2.0;
    format      ascii;
    class       volScalarField;
    location    "100";
    object      p;
}
// * * * * * * * * * * * * * * * * * * * * * * * * * * * * * * * * * * * * * //

dimensions      [0 2 -2 0 0 0 0];

internalField   nonuniform List<scalar> 
283312
(
-0.00616212
-0.00622578
-0.00647546
-0.00682616
-0.00718691
-0.00748667
-0.00771842
-0.007878
-0.0079994
-0.00810748
-0.00822344
-0.00833466
-0.00840886
-0.00838974
-0.00823954
-0.00796375
-0.00757682
-0.00711511
-0.00666131
-0.00631722
0.00217896
0.00166936
0.00123358
0.000957913
0.00085474
0.00091876
0.00106352
0.00120764
0.00132208
0.0014144
0.00148688
0.00157017
0.00169994
0.00189966
0.00218072
0.0025478
0.00286866
0.0030256
0.00295329
0.00264709
-0.00229475
-0.00213847
-0.00191128
-0.0016678
-0.00147272
-0.00137334
-0.00135435
-0.00135991
-0.001408
-0.0014473
-0.00147384
-0.00145098
-0.00138395
-0.00129772
-0.00125805
-0.00137148
-0.00161803
-0.00191181
-0.00217078
-0.00231034
0.00146038
0.00164097
0.00178847
0.00190513
0.00198745
0.00205705
0.00206365
0.00207085
0.00203875
0.00205281
0.00207517
0.00212162
0.00213406
0.00206716
0.00191336
0.00166138
0.00141576
0.00124713
0.00121047
0.00129975
-0.00074964
-0.000542797
-0.00042237
-0.000342044
-0.000338476
-0.00032645
-0.000338999
-0.000325379
-0.000354314
-0.000326612
-0.000329463
-0.000391386
-0.000603546
-0.000966964
-0.00142904
-0.00177784
-0.00184985
-0.00167888
-0.00136588
-0.00102931
0.00118488
0.00130032
0.00136084
0.0014076
0.00142152
0.00142863
0.00139371
0.0013805
0.00131704
0.00133054
0.00127938
0.00114178
0.000821091
0.00040783
0.000115645
5.309e-05
0.000211492
0.000487145
0.00077798
0.00101816
-0.000154075
-0.000109788
-0.000100947
-9.39844e-05
-0.000106352
-8.22448e-05
-8.39094e-05
-5.63674e-05
-8.71565e-05
-5.93319e-05
-0.00016889
-0.000452895
-0.000916912
-0.00137311
-0.00152283
-0.00135349
-0.00101055
-0.000669719
-0.000407151
-0.000241217
0.000752825
0.000804614
0.000829253
0.000854504
0.000843048
0.00083922
0.000801339
0.000780421
0.000713372
0.000707722
0.000567515
0.000261431
-0.000173077
-0.000411328
-0.000382181
-0.000146961
0.000153903
0.000397622
0.000572032
0.000683296
-1.52755e-06
2.56161e-06
-7.36314e-06
-8.70797e-06
-1.09559e-05
1.00117e-05
1.08888e-05
2.96086e-05
2.13356e-06
8.73176e-06
-0.000167963
-0.000559715
-0.000969044
-0.00108606
-0.000901276
-0.000616088
-0.000344462
-0.000169669
-6.52934e-05
-1.73785e-05
0.000437702
0.000463395
0.000474557
0.000485407
0.000472521
0.000463943
0.000433496
0.000410586
0.000358032
0.000342506
0.000174839
-0.000181201
-0.000437203
-0.000443406
-0.000230562
-9.62217e-06
0.000177649
0.000288094
0.000362653
0.000406822
4.49302e-05
4.41016e-05
3.57595e-05
3.75901e-05
3.6481e-05
5.10182e-05
5.10294e-05
6.63209e-05
4.89383e-05
7.31459e-05
-9.44734e-05
-0.000514609
-0.00069936
-0.000629368
-0.000397547
-0.000214806
-7.53838e-05
-9.12512e-06
3.02318e-05
4.27762e-05
0.000251219
0.000263653
0.000267746
0.000271174
0.000260017
0.000251154
0.000227694
0.000209274
0.000174067
0.000190668
5.98262e-05
-0.000216923
-0.000326139
-0.000226097
-5.04124e-05
6.4156e-05
0.000150976
0.000189144
0.000220203
0.000236828
5.72911e-05
5.80183e-05
5.39126e-05
5.74924e-05
5.62596e-05
6.73082e-05
6.68128e-05
8.94014e-05
8.56078e-05
0.000188763
7.78832e-05
-0.000266706
-0.000353359
-0.000290915
-0.000147385
-6.49852e-05
3.71154e-06
2.89062e-05
4.95095e-05
5.4807e-05
0.000147625
0.000153296
0.000153756
0.000154351
0.0001447
0.000136828
0.000117609
0.000104568
8.3633e-05
0.000137975
9.75459e-05
-5.10131e-05
-0.000109813
-5.43218e-05
3.19873e-05
7.01238e-05
0.000108309
0.000118882
0.000134166
0.000140406
5.56246e-05
5.77992e-05
5.6574e-05
6.03242e-05
5.917e-05
6.80342e-05
6.81509e-05
9.5973e-05
0.000107571
0.000281396
0.000269334
-4.73426e-05
-0.000137485
-0.000140564
-7.46899e-05
-3.39029e-05
1.22449e-05
2.85172e-05
4.59776e-05
5.13107e-05
9.19312e-05
9.44645e-05
9.34593e-05
9.29064e-05
8.46274e-05
7.76721e-05
6.12006e-05
5.0023e-05
3.19346e-05
8.7839e-05
0.000199077
4.26068e-05
-1.4173e-05
-1.62127e-05
2.25954e-05
3.65756e-05
6.51062e-05
7.23218e-05
8.42633e-05
8.76222e-05
4.93067e-05
5.17803e-05
5.18646e-05
5.48877e-05
5.38154e-05
5.97528e-05
5.9478e-05
7.55749e-05
7.16519e-05
0.000110398
7.04192e-05
-2.65252e-05
-3.69379e-05
-5.15655e-05
-1.78791e-05
-9.22911e-06
1.7227e-05
2.61178e-05
3.99065e-05
4.46159e-05
6.26034e-05
6.35825e-05
6.22462e-05
6.13739e-05
5.47385e-05
4.89039e-05
3.61222e-05
2.56127e-05
1.36389e-05
1.2844e-05
4.51187e-05
1.49587e-05
2.37994e-05
2.08676e-05
3.97159e-05
3.84095e-05
5.20866e-05
5.22265e-05
5.91532e-05
6.01213e-05
4.25356e-05
4.45455e-05
4.49585e-05
4.70009e-05
4.59982e-05
4.95226e-05
4.94991e-05
5.75332e-05
5.52309e-05
6.21111e-05
3.77742e-05
-1.10595e-05
-1.26663e-05
-2.61885e-05
-4.4709e-06
-8.47424e-07
1.78672e-05
2.37782e-05
3.45516e-05
3.82931e-05
4.68602e-05
4.71235e-05
4.59444e-05
4.50545e-05
4.00542e-05
3.55123e-05
2.61381e-05
1.73472e-05
8.72483e-06
2.14804e-06
1.64687e-05
1.18444e-05
2.80765e-05
2.55473e-05
3.85153e-05
3.42546e-05
4.2358e-05
4.06731e-05
4.51558e-05
4.52375e-05
3.71775e-05
3.84223e-05
3.87614e-05
3.98792e-05
3.86769e-05
4.04337e-05
4.02712e-05
4.36239e-05
4.30387e-05
4.2045e-05
2.98772e-05
-4.13033e-07
-1.42031e-06
-1.22604e-05
2.40746e-06
4.43571e-06
1.81956e-05
2.25297e-05
3.08715e-05
3.35746e-05
3.83699e-05
3.82883e-05
3.74761e-05
3.66671e-05
3.29657e-05
2.95818e-05
2.29048e-05
1.59947e-05
1.03339e-05
4.00195e-06
1.20306e-05
1.25939e-05
2.73269e-05
2.49831e-05
3.44354e-05
3.03162e-05
3.57674e-05
3.40965e-05
3.73063e-05
3.71341e-05
3.37443e-05
3.41808e-05
3.44655e-05
3.48331e-05
3.34247e-05
3.3862e-05
3.32131e-05
3.3787e-05
3.43076e-05
3.07594e-05
2.58939e-05
5.89954e-06
6.11849e-06
-1.8773e-06
8.53429e-06
9.83459e-06
1.9843e-05
2.30226e-05
2.91658e-05
3.08408e-05
3.38614e-05
3.3362e-05
3.30182e-05
3.22741e-05
2.94035e-05
2.69131e-05
2.27118e-05
1.69868e-05
1.40032e-05
8.39265e-06
1.39435e-05
1.40006e-05
2.5654e-05
2.30985e-05
3.0611e-05
2.76975e-05
3.16759e-05
3.06382e-05
3.30425e-05
3.25953e-05
3.15224e-05
3.10966e-05
3.15093e-05
3.14457e-05
2.98147e-05
2.95375e-05
2.85077e-05
2.72458e-05
2.83871e-05
2.40443e-05
2.31928e-05
9.9872e-06
1.20183e-05
6.34718e-06
1.40886e-05
1.50123e-05
2.18935e-05
2.4238e-05
2.85638e-05
2.91915e-05
3.10672e-05
3.00124e-05
3.01192e-05
2.93241e-05
2.70376e-05
2.55287e-05
2.26404e-05
1.79601e-05
1.7421e-05
1.1583e-05
1.67215e-05
1.4468e-05
2.37869e-05
2.12595e-05
2.7175e-05
2.56349e-05
2.86239e-05
2.84065e-05
3.02225e-05
2.95668e-05
2.97282e-05
2.87888e-05
2.94332e-05
2.87624e-05
2.72545e-05
2.66146e-05
2.56802e-05
2.29713e-05
2.46529e-05
1.98868e-05
2.16873e-05
1.25461e-05
1.60618e-05
1.14314e-05
1.77456e-05
1.83563e-05
2.30207e-05
2.49544e-05
2.77579e-05
2.79393e-05
2.94751e-05
2.7491e-05
2.8362e-05
2.74348e-05
2.52114e-05
2.43245e-05
2.24811e-05
1.8321e-05
1.9689e-05
1.37133e-05
1.88984e-05
1.48232e-05
2.25792e-05
1.96495e-05
2.4631e-05
2.40393e-05
2.58394e-05
2.66951e-05
2.8219e-05
2.73488e-05
2.93654e-05
2.75083e-05
2.87023e-05
2.7378e-05
2.55604e-05
2.55942e-05
2.41636e-05
2.07764e-05
2.39347e-05
1.77849e-05
2.22894e-05
1.42134e-05
1.94157e-05
1.53239e-05
2.0164e-05
2.10672e-05
2.36493e-05
2.56456e-05
2.72048e-05
2.68893e-05
2.87042e-05
2.64041e-05
2.81726e-05
2.65669e-05
2.46133e-05
2.41616e-05
2.29936e-05
1.82855e-05
2.18316e-05
1.52214e-05
2.14196e-05
1.56747e-05
2.31578e-05
1.90508e-05
2.36967e-05
2.36692e-05
2.46594e-05
2.63294e-05
2.69661e-05
2.63787e-05
3.00013e-05
2.65543e-05
2.92831e-05
2.7773e-05
2.49452e-05
2.54241e-05
2.41384e-05
1.99604e-05
2.46901e-05
1.73923e-05
2.40314e-05
1.59948e-05
2.25549e-05
1.81602e-05
2.2819e-05
2.39001e-05
2.41163e-05
2.70455e-05
2.7878e-05
2.64815e-05
2.89277e-05
2.54306e-05
2.86085e-05
2.65077e-05
2.39001e-05
2.48745e-05
2.34305e-05
1.79667e-05
2.40811e-05
1.53191e-05
2.40461e-05
1.56775e-05
2.41033e-05
1.90516e-05
2.34653e-05
2.46028e-05
2.41416e-05
2.68843e-05
2.65267e-05
2.53235e-05
3.03242e-05
2.592e-05
3.00293e-05
2.74733e-05
2.43927e-05
2.5978e-05
2.42288e-05
1.87513e-05
2.58734e-05
1.66887e-05
2.58517e-05
1.64958e-05
2.5068e-05
1.93982e-05
2.42897e-05
2.58633e-05
2.46905e-05
2.84655e-05
2.77816e-05
2.60505e-05
2.92462e-05
2.29662e-05
2.87447e-05
2.62658e-05
2.15374e-05
2.55004e-05
2.33061e-05
1.61713e-05
2.5356e-05
1.37693e-05
2.54918e-05
1.42332e-05
2.46627e-05
1.76985e-05
2.24683e-05
2.53899e-05
2.21612e-05
2.71313e-05
2.60153e-05
2.29563e-05
3.01495e-05
2.38772e-05
3.02366e-05
2.64014e-05
2.25468e-05
2.64788e-05
2.36745e-05
1.64125e-05
2.71102e-05
1.41586e-05
2.73012e-05
1.45796e-05
2.62435e-05
1.81534e-05
2.39156e-05
2.62096e-05
2.31204e-05
2.89819e-05
2.67633e-05
2.44632e-05
2.88868e-05
1.93774e-05
2.90119e-05
2.45232e-05
1.77893e-05
2.62816e-05
2.25218e-05
1.22323e-05
2.65041e-05
9.76163e-06
2.65591e-05
1.04401e-05
2.47887e-05
1.39977e-05
1.99278e-05
2.45658e-05
1.84435e-05
2.70279e-05
2.39021e-05
1.95188e-05
3.03176e-05
2.06204e-05
3.05819e-05
2.47599e-05
1.88587e-05
2.7324e-05
2.26246e-05
1.30983e-05
2.80465e-05
1.04244e-05
2.81532e-05
1.11725e-05
2.6484e-05
1.45213e-05
2.19663e-05
2.57808e-05
1.94847e-05
2.89428e-05
2.48709e-05
2.11993e-05
2.93231e-05
1.25763e-05
3.10373e-05
2.29734e-05
1.03992e-05
2.9019e-05
2.15937e-05
4.12133e-06
2.93995e-05
1.88636e-06
2.92128e-05
2.92571e-06
2.62179e-05
6.41038e-06
1.58338e-05
2.45074e-05
1.11952e-05
2.81143e-05
2.15797e-05
1.31906e-05
3.04239e-05
1.51397e-05
3.21703e-05
2.2382e-05
1.2995e-05
2.96824e-05
2.07486e-05
6.90172e-06
2.98478e-05
4.08214e-06
2.96883e-05
5.1331e-06
2.70531e-05
8.16573e-06
1.86129e-05
2.49906e-05
1.34093e-05
2.96145e-05
2.17466e-05
1.6027e-05
3.22499e-05
-1.9207e-06
3.8506e-05
1.90877e-05
-7.09377e-06
3.84118e-05
1.85234e-05
-1.45748e-05
3.6737e-05
-1.52891e-05
3.5801e-05
-1.35951e-05
3.11388e-05
-1.02644e-05
9.26723e-06
2.74664e-05
-3.60904e-06
3.40384e-05
1.65881e-05
-1.27839e-06
-0.0108688
-0.0104706
-0.0101623
-0.00994936
-0.00983131
-0.0098159
-0.00993398
-0.010166
-0.0105066
-0.0109326
-0.0114225
-0.0119261
-0.01238
-0.0127054
-0.0128463
-0.0128114
-0.0126126
-0.0122637
-0.0118147
-0.011331
0.00236544
0.00232008
0.00218461
0.00201887
0.00186031
0.00176762
0.00169975
0.00161704
0.00149787
0.00134654
0.00114681
0.000923994
0.000731351
0.000631508
0.000684715
0.000946977
0.00132805
0.00172747
0.0020667
0.00228625
-0.00230341
-0.00206276
-0.00187451
-0.00173709
-0.00168595
-0.0017403
-0.00186753
-0.00201567
-0.00223177
-0.00248532
-0.00281476
-0.00316758
-0.00347815
-0.00366353
-0.00370688
-0.00363707
-0.0034529
-0.00317177
-0.0028646
-0.00256991
0.00289824
0.00296576
0.00299066
0.00300767
0.00301005
0.00300995
0.00294224
0.00286478
0.00269909
0.00250828
0.00218272
0.00181155
0.00149197
0.00134449
0.00145587
0.0017119
0.00205647
0.00237323
0.00261972
0.00279194
-0.000454304
-0.000300626
-0.000225583
-0.00017722
-0.000215397
-0.000232402
-0.000295337
-0.000342141
-0.000496187
-0.000688148
-0.00110293
-0.00160856
-0.00205753
-0.00231209
-0.00235732
-0.00218577
-0.00182094
-0.00139669
-0.000998678
-0.000678564
0.00200119
0.00210743
0.00215994
0.00220616
0.00220177
0.00219047
0.00210615
0.00203399
0.00183958
0.00161901
0.00111305
0.000579142
0.00018632
9.81411e-05
0.000292293
0.000645681
0.00103265
0.00137465
0.00165183
0.00185979
5.57939e-05
0.000104398
0.000110194
0.000115256
9.04423e-05
0.000110192
7.72655e-05
6.81759e-05
-7.73517e-05
-0.000283587
-0.000876098
-0.00150425
-0.00191731
-0.00200521
-0.00173743
-0.00129274
-0.000828692
-0.000460234
-0.000196775
-3.18682e-05
0.00123936
0.00131231
0.00134597
0.00138
0.00135485
0.00133972
0.0012613
0.00119414
0.00100873
0.000763045
0.000135923
-0.000431616
-0.00069013
-0.000541954
-0.000182486
0.000208472
0.000565266
0.00082414
0.00101616
0.00114872
0.000169788
0.000182363
0.000170854
0.000171723
0.000162424
0.000184493
0.00016239
0.000155413
3.26516e-05
-0.000184669
-0.000842159
-0.0014469
-0.00164016
-0.00140275
-0.000958803
-0.000566528
-0.000245555
-4.87657e-05
7.82708e-05
0.000143077
0.000735976
0.00077749
0.000794057
0.00080981
0.000786211
0.000769918
0.000709242
0.000652686
0.000509659
0.000285024
-0.000323573
-0.000804882
-0.000804181
-0.000520474
-0.000125548
0.000158244
0.000384592
0.000517717
0.000620216
0.000686787
0.000178736
0.000184106
0.000174465
0.000179887
0.000173504
0.000190535
0.000174799
0.000176784
9.45758e-05
-5.12245e-05
-0.000614383
-0.00112727
-0.00106125
-0.000769151
-0.00040126
-0.000175202
-1.70382e-07
8.36781e-05
0.000143892
0.000168601
0.000435837
0.000457811
0.00046425
0.000470652
0.000451142
0.000437545
0.000393326
0.000355588
0.000263639
0.000134273
-0.000324004
-0.000605507
-0.000490299
-0.000227819
3.55922e-05
0.000169356
0.000281059
0.000330838
0.000381031
0.000410297
0.000158446
0.00016431
0.000160023
0.000167546
0.000162552
0.000177375
0.000167499
0.000191908
0.000156122
0.000176423
-0.000200456
-0.000568258
-0.000479656
-0.000320829
-0.000115315
-2.44434e-05
6.67672e-05
0.000100175
0.000136296
0.000149423
0.000265082
0.000276632
0.00027799
0.000280843
0.000264651
0.000254144
0.000220573
0.000199953
0.000151825
0.000138763
-8.4458e-05
-0.000197153
-0.000123134
-6.81863e-06
0.000112656
0.000144409
0.000195919
0.00020928
0.000237437
0.000250617
0.000131608
0.000138251
0.000137634
0.000145111
0.000141221
0.000154307
0.000149233
0.000188503
0.000193701
0.000365641
0.000229393
-0.000141889
-0.000152786
-0.000138424
-4.62312e-05
-8.42292e-06
5.64376e-05
7.83276e-05
0.000109566
0.000121214
0.000170717
0.000177112
0.000176416
0.00017759
0.000163991
0.000155273
0.000127696
0.00011376
8.141e-05
0.000146101
0.00025401
1.45836e-05
-1.69056e-05
-1.10591e-05
5.56294e-05
7.00631e-05
0.000117332
0.000128994
0.000152755
0.00016103
0.000107544
0.000113627
0.000114551
0.000120615
0.000117338
0.000126489
0.000122248
0.000146119
0.000134705
0.000189768
0.000113047
-5.60351e-05
-5.12471e-05
-7.21427e-05
-1.10353e-05
-5.7914e-07
4.63736e-05
6.14344e-05
8.77146e-05
9.75522e-05
0.000119518
0.000123003
0.000121748
0.000122168
0.000111315
0.000104079
8.27512e-05
6.92269e-05
4.71816e-05
4.85533e-05
8.11637e-05
1.1588e-05
3.56838e-05
2.75712e-05
6.64413e-05
6.32129e-05
9.14444e-05
9.35602e-05
0.000109295
0.000113162
8.9018e-05
9.36142e-05
9.47484e-05
9.90177e-05
9.62014e-05
0.00010184
9.88731e-05
0.000110576
0.000102991
0.000112429
6.98816e-05
-1.89464e-05
-1.10125e-05
-3.44955e-05
6.53499e-06
9.70916e-06
4.37257e-05
5.31745e-05
7.33855e-05
8.05725e-05
9.14836e-05
9.32972e-05
9.21332e-05
9.21468e-05
8.39205e-05
7.8317e-05
6.26609e-05
5.0622e-05
3.48397e-05
2.48831e-05
3.92601e-05
1.79063e-05
4.83994e-05
3.94889e-05
6.67301e-05
5.8556e-05
7.65254e-05
7.47801e-05
8.54235e-05
8.70241e-05
7.65202e-05
7.9375e-05
8.02546e-05
8.28288e-05
7.99803e-05
8.29623e-05
8.05184e-05
8.49707e-05
8.12604e-05
7.79007e-05
5.71438e-05
3.35455e-06
9.4348e-06
-1.03835e-05
1.8017e-05
1.85406e-05
4.33503e-05
4.95579e-05
6.48296e-05
6.96408e-05
7.64077e-05
7.71443e-05
7.64293e-05
7.61877e-05
6.99811e-05
6.5788e-05
5.45807e-05
4.45797e-05
3.44626e-05
2.35792e-05
3.26479e-05
2.46794e-05
5.12316e-05
4.30511e-05
6.29181e-05
5.48593e-05
6.72489e-05
6.49182e-05
7.25154e-05
7.30155e-05
6.92003e-05
7.03344e-05
7.11172e-05
7.23053e-05
6.93171e-05
7.02781e-05
6.76794e-05
6.77721e-05
6.69352e-05
5.9564e-05
5.16989e-05
1.66852e-05
2.2842e-05
7.59865e-06
2.80997e-05
2.78169e-05
4.57881e-05
5.00131e-05
6.10762e-05
6.37665e-05
6.84718e-05
6.8033e-05
6.80092e-05
6.75368e-05
6.2614e-05
5.95327e-05
5.2256e-05
4.34927e-05
3.84251e-05
2.81495e-05
3.58382e-05
2.99374e-05
5.10833e-05
4.33846e-05
5.89603e-05
5.3002e-05
6.19928e-05
6.04069e-05
6.58961e-05
6.54147e-05
6.47813e-05
6.41165e-05
6.51734e-05
6.54529e-05
6.22615e-05
6.21861e-05
5.94615e-05
5.66236e-05
5.78156e-05
4.90926e-05
4.85876e-05
2.50737e-05
3.28655e-05
2.14692e-05
3.69328e-05
3.65793e-05
4.89646e-05
5.20226e-05
5.96849e-05
6.04065e-05
6.37048e-05
6.18897e-05
6.26437e-05
6.17607e-05
5.77198e-05
5.60093e-05
5.0919e-05
4.32512e-05
4.27205e-05
3.18056e-05
4.03578e-05
3.24502e-05
4.98462e-05
4.27858e-05
5.51216e-05
5.15751e-05
5.80712e-05
5.77487e-05
6.16516e-05
6.04739e-05
6.17272e-05
5.97386e-05
6.13744e-05
6.04468e-05
5.74353e-05
5.69562e-05
5.46502e-05
4.94771e-05
5.25674e-05
4.28614e-05
4.74359e-05
3.02988e-05
3.97994e-05
3.0161e-05
4.27471e-05
4.24141e-05
5.06424e-05
5.33782e-05
5.82631e-05
5.80607e-05
6.13938e-05
5.76745e-05
5.98683e-05
5.837e-05
5.43345e-05
5.36368e-05
5.01839e-05
4.28808e-05
4.62203e-05
3.459e-05
4.45498e-05
3.43453e-05
4.95462e-05
4.21168e-05
5.24844e-05
5.07103e-05
5.44996e-05
5.59881e-05
5.88263e-05
5.71021e-05
6.15089e-05
5.76159e-05
6.05763e-05
5.82915e-05
5.4686e-05
5.53625e-05
5.24815e-05
4.59842e-05
5.24787e-05
4.02104e-05
4.99773e-05
3.41676e-05
4.61575e-05
3.71459e-05
4.71495e-05
4.76399e-05
5.19126e-05
5.51571e-05
5.76634e-05
5.65427e-05
6.09823e-05
5.61069e-05
6.03011e-05
5.73857e-05
5.34314e-05
5.36629e-05
5.1119e-05
4.25721e-05
5.04242e-05
3.70606e-05
4.9991e-05
3.69772e-05
5.22917e-05
4.29938e-05
5.26014e-05
5.20493e-05
5.3589e-05
5.67053e-05
5.75881e-05
5.59335e-05
6.32005e-05
5.62877e-05
6.23397e-05
5.92767e-05
5.38981e-05
5.57104e-05
5.28868e-05
4.46958e-05
5.50418e-05
4.00815e-05
5.45574e-05
3.79101e-05
5.24982e-05
4.25567e-05
5.22118e-05
5.34383e-05
5.32946e-05
5.8478e-05
5.91798e-05
5.61767e-05
6.21268e-05
5.45892e-05
6.18952e-05
5.77008e-05
5.23605e-05
5.53458e-05
5.21004e-05
4.17582e-05
5.49979e-05
3.72255e-05
5.55971e-05
3.77145e-05
5.54283e-05
4.41275e-05
5.35426e-05
5.51687e-05
5.34761e-05
5.88898e-05
5.75131e-05
5.45286e-05
6.43496e-05
5.48602e-05
6.42173e-05
5.89921e-05
5.26512e-05
5.71996e-05
5.32242e-05
4.2309e-05
5.80684e-05
3.86391e-05
5.88309e-05
3.86479e-05
5.74217e-05
4.46567e-05
5.49367e-05
5.75306e-05
5.41317e-05
6.15907e-05
5.9257e-05
5.52434e-05
6.30627e-05
5.0163e-05
6.27444e-05
5.70904e-05
4.80915e-05
5.68724e-05
5.18543e-05
3.80441e-05
5.79346e-05
3.39001e-05
5.89784e-05
3.49464e-05
5.72437e-05
4.18197e-05
5.22453e-05
5.70737e-05
5.00861e-05
6.00387e-05
5.6563e-05
5.04601e-05
6.44481e-05
5.04858e-05
6.50552e-05
5.68589e-05
4.84865e-05
5.85606e-05
5.21276e-05
3.73009e-05
6.08623e-05
3.32609e-05
6.20006e-05
3.44088e-05
5.96993e-05
4.1511e-05
5.37312e-05
5.81971e-05
5.04287e-05
6.27438e-05
5.71189e-05
5.17008e-05
6.28457e-05
4.31832e-05
6.37269e-05
5.37382e-05
4.07425e-05
5.87647e-05
5.02166e-05
3.02712e-05
6.06089e-05
2.57981e-05
6.15165e-05
2.73927e-05
5.78706e-05
3.44055e-05
4.7459e-05
5.56831e-05
4.2648e-05
6.01324e-05
5.24863e-05
4.38769e-05
6.50299e-05
4.33887e-05
6.64253e-05
5.34533e-05
4.05357e-05
6.08889e-05
4.99376e-05
2.96779e-05
6.3451e-05
2.48058e-05
6.43835e-05
2.66276e-05
6.05012e-05
3.32613e-05
4.92499e-05
5.71826e-05
4.23168e-05
6.29884e-05
5.30378e-05
4.47814e-05
6.39536e-05
3.06953e-05
6.7888e-05
5.0359e-05
2.70986e-05
6.42746e-05
4.80497e-05
1.53906e-05
6.62594e-05
1.10041e-05
6.66833e-05
1.33328e-05
6.05435e-05
1.99691e-05
3.97331e-05
5.5297e-05
2.89876e-05
6.22463e-05
4.75952e-05
3.22534e-05
6.57761e-05
3.1884e-05
7.0416e-05
4.86759e-05
2.80256e-05
6.64327e-05
4.61518e-05
1.63635e-05
6.79211e-05
1.11564e-05
6.82896e-05
1.36412e-05
6.2257e-05
1.95493e-05
4.21876e-05
5.60486e-05
2.94948e-05
6.49454e-05
4.67558e-05
3.39368e-05
6.88901e-05
7.57156e-06
8.06259e-05
4.36761e-05
-5.46521e-07
8.03099e-05
4.27787e-05
-1.42344e-05
7.89505e-05
-1.66639e-05
7.81302e-05
-1.32051e-05
6.88641e-05
-7.04586e-06
2.90509e-05
6.00281e-05
5.14032e-06
7.20823e-05
3.88695e-05
9.47922e-06
-0.0133848
-0.0128271
-0.0123724
-0.0120407
-0.0118451
-0.0118148
-0.0119669
-0.0122799
-0.0127434
-0.0133223
-0.0139814
-0.0146529
-0.0152551
-0.0156925
-0.0158958
-0.0158705
-0.0156319
-0.0151996
-0.0146321
-0.0140047
0.00198713
0.00204583
0.00197634
0.00183832
0.00167657
0.00155898
0.00142368
0.00125085
0.00101833
0.000735413
0.000390196
2.1714e-05
-0.000295533
-0.000476222
-0.00044096
-0.000133973
0.000349197
0.00089137
0.00139209
0.0017705
-0.00269774
-0.00238442
-0.00216533
-0.00202893
-0.00201329
-0.00211962
-0.00231648
-0.0025549
-0.00288807
-0.00328358
-0.00378219
-0.00430718
-0.00475818
-0.00501229
-0.00504725
-0.00486941
-0.00451001
-0.00402851
-0.00353152
-0.00307946
0.00337574
0.00345654
0.00347522
0.00347706
0.00345132
0.00340642
0.00327914
0.00312383
0.00284585
0.00251103
0.001998
0.00144292
0.00100402
0.000853224
0.00109024
0.00153461
0.00208939
0.00259004
0.0029719
0.00322831
-0.000275416
-0.00011104
-3.83262e-05
-9.82815e-07
-6.34881e-05
-0.00010644
-0.000218595
-0.000332589
-0.000598388
-0.00094488
-0.00157806
-0.00228821
-0.00283394
-0.00305829
-0.00294549
-0.00255839
-0.00198746
-0.0014048
-0.000904492
-0.000526934
0.00245364
0.00257725
0.00263504
0.00268172
0.00265762
0.00262221
0.00248842
0.00235016
0.00204017
0.00165612
0.000909209
0.000183767
-0.000259056
-0.000226433
0.000159749
0.000708686
0.00124943
0.00169484
0.00203756
0.00228679
0.000285655
0.000348152
0.000356859
0.000359764
0.000324471
0.000329388
0.000257838
0.00019435
-6.03808e-05
-0.000432792
-0.00128729
-0.00209794
-0.0025241
-0.00246351
-0.00199533
-0.00137681
-0.000787063
-0.000338533
-2.25756e-05
0.000176756
0.00156565
0.00165736
0.00169811
0.00173465
0.00169612
0.00166407
0.00154565
0.00142353
0.00113058
0.00071661
-0.000176323
-0.000896759
-0.00110656
-0.000800166
-0.000257595
0.000266395
0.00071887
0.0010414
0.00128155
0.00144972
0.000365209
0.000389709
0.000380443
0.000383335
0.000365406
0.000378066
0.000325656
0.000275548
5.83357e-05
-0.000319061
-0.0012444
-0.00198614
-0.00209697
-0.00169196
-0.00108346
-0.000582647
-0.000183149
6.43445e-05
0.000230061
0.000321387
0.000958021
0.00101246
0.00103306
0.00105009
0.00101687
0.000989306
0.000898861
0.0008015
0.000573022
0.000201156
-0.00065875
-0.00123783
-0.00113183
-0.000695186
-0.000166197
0.000199295
0.000488662
0.000663133
0.000800221
0.000891377
0.00032824
0.000341957
0.000333651
0.000341495
0.000328505
0.000340021
0.000302895
0.000277138
0.000126479
-0.000141365
-0.000935536
-0.00152899
-0.00134703
-0.000926004
-0.000448519
-0.000161668
6.35953e-05
0.000178082
0.000264785
0.000306595
0.000585291
0.000615334
0.000623635
0.000631302
0.000604532
0.000584164
0.000519941
0.000457547
0.000309802
8.05664e-05
-0.000572984
-0.000890658
-0.000670268
-0.000305942
3.8173e-05
0.000212035
0.000361577
0.000433499
0.00050555
0.000549085
0.000268767
0.000280622
0.000277404
0.000287334
0.000277587
0.000290335
0.000267257
0.000280742
0.000206511
0.000166381
-0.000374095
-0.000781654
-0.000606129
-0.000380455
-0.000114088
2.77487e-06
0.000124477
0.000174109
0.000228004
0.000251729
0.000367559
0.000384377
0.000386644
0.000390887
0.000369276
0.000355165
0.000308598
0.000277002
0.000200114
0.000143358
-0.00019344
-0.000318597
-0.000179128
-1.9489e-05
0.000139705
0.000184318
0.000258021
0.000281947
0.000324502
0.000346083
0.000212926
0.000224081
0.000224413
0.000234156
0.000226836
0.000239892
0.000227083
0.000266682
0.000257361
0.000424568
0.000206661
-0.000220538
-0.000188968
-0.00015762
-3.2603e-05
1.45469e-05
0.000100996
0.000132541
0.000177356
0.000196341
0.000243906
0.000253945
0.00025374
0.000256209
0.000238364
0.0002276
0.000190723
0.000172476
0.000125602
0.000190154
0.000276487
-2.20047e-05
-3.27087e-05
-1.87233e-05
7.42809e-05
9.54499e-05
0.000161255
0.000179985
0.000215113
0.000229073
0.000168965
0.000178377
0.000180031
0.000187937
0.000181938
0.000191399
0.000181681
0.000206749
0.0001859
0.000244793
0.000138208
-8.08607e-05
-6.31082e-05
-8.55423e-05
-8.20605e-07
1.46428e-05
7.96299e-05
0.000101663
0.000138982
0.000154123
0.000174742
0.000180726
0.000179719
0.000181162
0.000166894
0.000158229
0.000129875
0.000113166
8.16006e-05
8.1256e-05
0.000105256
3.77089e-06
3.95406e-05
2.86327e-05
8.57083e-05
8.42178e-05
0.000126385
0.000132606
0.000156964
0.00016456
0.000137561
0.000144451
0.000146037
0.000151604
0.000146501
0.000152265
0.000145203
0.000156843
0.00014305
0.000150943
9.43833e-05
-2.44609e-05
-8.39455e-06
-3.7653e-05
2.00576e-05
2.50244e-05
7.25202e-05
8.61813e-05
0.000114693
0.000125417
0.00013605
0.000139492
0.00013843
0.000139128
0.00012815
0.000121473
0.000100588
8.55629e-05
6.32464e-05
4.92067e-05
5.94616e-05
2.17485e-05
6.21549e-05
4.843e-05
8.87181e-05
7.97965e-05
0.000107705
0.000107906
0.00012481
0.000128716
0.000117407
0.000121673
0.000122808
0.000126166
0.000121293
0.000124169
0.000118562
0.000121958
0.0001143
0.000107216
7.9914e-05
8.09666e-06
2.07989e-05
-4.78476e-06
3.5759e-05
3.63614e-05
7.09218e-05
7.94665e-05
0.00010077
0.000107743
0.000114944
0.000116569
0.000115937
0.000116076
0.000107613
0.000102586
8.75292e-05
7.47256e-05
6.05056e-05
4.50176e-05
5.27775e-05
3.53566e-05
7.03436e-05
5.74693e-05
8.69647e-05
7.73765e-05
9.69275e-05
9.54963e-05
0.00010762
0.000109397
0.000105656
0.000107376
0.000108363
0.000109917
0.000105097
0.000105779
0.000100639
9.90201e-05
9.59812e-05
8.43829e-05
7.42205e-05
2.7693e-05
3.97469e-05
1.96044e-05
4.91758e-05
4.83589e-05
7.33795e-05
7.89802e-05
9.43478e-05
9.81371e-05
0.000103451
0.000103147
0.000103291
0.000102908
9.60644e-05
9.23734e-05
8.23214e-05
7.08198e-05
6.36704e-05
4.8847e-05
5.71399e-05
4.45758e-05
7.28338e-05
6.09221e-05
8.39355e-05
7.66118e-05
9.08677e-05
8.98989e-05
9.8659e-05
9.86757e-05
9.85471e-05
9.76557e-05
9.90116e-05
9.92787e-05
9.43794e-05
9.40473e-05
8.92659e-05
8.42219e-05
8.46584e-05
7.15472e-05
7.14134e-05
3.98661e-05
5.32635e-05
3.77236e-05
6.02034e-05
5.92764e-05
7.66552e-05
8.073e-05
9.14072e-05
9.2452e-05
9.66555e-05
9.42188e-05
9.53667e-05
9.42132e-05
8.84354e-05
8.64312e-05
7.92676e-05
6.88264e-05
6.79617e-05
5.23494e-05
6.30936e-05
4.94683e-05
7.3226e-05
6.23722e-05
8.06712e-05
7.62189e-05
8.64612e-05
8.68402e-05
9.30208e-05
9.18012e-05
9.42125e-05
9.12481e-05
9.35247e-05
9.21321e-05
8.74474e-05
8.68805e-05
8.29014e-05
7.50479e-05
7.87885e-05
6.43518e-05
7.13671e-05
4.7789e-05
6.29848e-05
4.9559e-05
6.78596e-05
6.71553e-05
7.86919e-05
8.24444e-05
8.92587e-05
8.88595e-05
9.37477e-05
8.85705e-05
9.17333e-05
8.95468e-05
8.37051e-05
8.30625e-05
7.79373e-05
6.76158e-05
7.23313e-05
5.55506e-05
6.92884e-05
5.34118e-05
7.48726e-05
6.37347e-05
7.92004e-05
7.70623e-05
8.31477e-05
8.56612e-05
8.98529e-05
8.75909e-05
9.3997e-05
8.82365e-05
9.25905e-05
8.93484e-05
8.38663e-05
8.48972e-05
8.04087e-05
7.07142e-05
7.9621e-05
6.17814e-05
7.60913e-05
5.39746e-05
7.22745e-05
5.94359e-05
7.43813e-05
7.49554e-05
8.09503e-05
8.55135e-05
8.88725e-05
8.69798e-05
9.35682e-05
8.62889e-05
9.24575e-05
8.83336e-05
8.23391e-05
8.3169e-05
7.90384e-05
6.68515e-05
7.80998e-05
5.86003e-05
7.72702e-05
5.78646e-05
8.01085e-05
6.67009e-05
8.10874e-05
8.07537e-05
8.31553e-05
8.78516e-05
8.90107e-05
8.62507e-05
9.61781e-05
8.61209e-05
9.48689e-05
9.03516e-05
8.25903e-05
8.55352e-05
8.0999e-05
6.88141e-05
8.37122e-05
6.18005e-05
8.31461e-05
5.92853e-05
8.13376e-05
6.69811e-05
8.14555e-05
8.33413e-05
8.32321e-05
9.05227e-05
9.10092e-05
8.64226e-05
9.51264e-05
8.37599e-05
9.45346e-05
8.84746e-05
8.05026e-05
8.53117e-05
8.01467e-05
6.51877e-05
8.43089e-05
5.84927e-05
8.51834e-05
5.9186e-05
8.5289e-05
6.89632e-05
8.32323e-05
8.58675e-05
8.34026e-05
9.14528e-05
8.92007e-05
8.43144e-05
9.7711e-05
8.34473e-05
9.72641e-05
8.96835e-05
8.02412e-05
8.75457e-05
8.13087e-05
6.51424e-05
8.82342e-05
5.95131e-05
8.94685e-05
5.99869e-05
8.81543e-05
6.9577e-05
8.49617e-05
8.90212e-05
8.39052e-05
9.48481e-05
9.10422e-05
8.46624e-05
9.64273e-05
7.75736e-05
9.58914e-05
8.7329e-05
7.45165e-05
8.74659e-05
7.97018e-05
5.97068e-05
8.87188e-05
5.3645e-05
9.03762e-05
5.5413e-05
8.84335e-05
6.60383e-05
8.18363e-05
8.87433e-05
7.88691e-05
9.33922e-05
8.77835e-05
7.87877e-05
9.81925e-05
7.71183e-05
9.8853e-05
8.68313e-05
7.4057e-05
8.97553e-05
7.98832e-05
5.79118e-05
9.26487e-05
5.20208e-05
9.45137e-05
5.40906e-05
9.16954e-05
6.50651e-05
8.32272e-05
9.02525e-05
7.84839e-05
9.66944e-05
8.806e-05
7.9397e-05
9.66802e-05
6.81823e-05
9.79565e-05
8.31335e-05
6.4525e-05
9.05623e-05
7.76328e-05
4.90693e-05
9.31772e-05
4.27461e-05
9.48454e-05
4.54244e-05
9.01729e-05
5.62737e-05
7.58992e-05
8.76195e-05
6.89309e-05
9.41094e-05
8.24569e-05
6.98876e-05
9.94414e-05
6.72337e-05
0.000101683
8.25108e-05
6.29202e-05
9.36882e-05
7.7092e-05
4.68932e-05
9.7236e-05
4.0215e-05
9.89995e-05
4.32984e-05
9.37023e-05
5.37171e-05
7.73585e-05
8.95881e-05
6.73347e-05
9.77474e-05
8.25515e-05
6.97178e-05
9.84837e-05
5.19523e-05
0.000104087
7.86847e-05
4.66412e-05
9.83305e-05
7.46992e-05
2.95277e-05
0.000101239
2.34473e-05
0.000102436
2.71975e-05
9.42345e-05
3.75156e-05
6.61692e-05
8.7647e-05
5.12455e-05
9.7346e-05
7.58167e-05
5.46277e-05
0.000101037
5.18777e-05
0.000108029
7.65028e-05
4.59869e-05
0.000102052
7.23813e-05
2.87391e-05
0.000104318
2.18833e-05
0.000105445
2.5926e-05
9.70069e-05
3.53902e-05
6.83695e-05
8.90619e-05
5.03504e-05
0.000101213
7.43721e-05
5.50984e-05
0.000104359
2.42678e-05
0.000119864
7.04113e-05
1.35834e-05
0.000118187
6.82579e-05
-5.96772e-06
0.000117092
-9.73596e-06
0.000116836
-4.5786e-06
0.00010444
5.02694e-06
5.32256e-05
9.3373e-05
2.26411e-05
0.000109247
6.4764e-05
2.7397e-05
-0.0147873
-0.0141522
-0.0136314
-0.0132506
-0.013032
-0.0130114
-0.0131971
-0.0135672
-0.0141081
-0.0147776
-0.015532
-0.0162929
-0.0169674
-0.0174503
-0.0176676
-0.0176256
-0.0173427
-0.0168456
-0.0162006
-0.01549
0.00147583
0.00158725
0.00155591
0.00144003
0.00128914
0.00116416
0.000988998
0.000758742
0.000450304
7.9323e-05
-0.000360541
-0.00081831
-0.00120456
-0.0014215
-0.00137895
-0.0010291
-0.000478044
0.000147279
0.000733888
0.00119196
-0.00304623
-0.00268415
-0.00244147
-0.00230143
-0.00230957
-0.00244953
-0.00269461
-0.00299828