/*--------------------------------*- C++ -*----------------------------------*\
| =========                 |                                                 |
| \\      /  F ield         | OpenFOAM: The Open Source CFD Toolbox           |
|  \\    /   O peration     | Version:  2.4.0                                 |
|   \\  /    A nd           | Web:      www.OpenFOAM.org                      |
|    \\/     M anipulation  |                                                 |
\*---------------------------------------------------------------------------*/
FoamFile
{
    version     2.0;
    format      ascii;
    class       volScalarField;
    location    "620";
    object      p;
}
// * * * * * * * * * * * * * * * * * * * * * * * * * * * * * * * * * * * * * //

dimensions      [0 2 -2 0 0 0 0];

internalField   nonuniform List<scalar> 
283312
(
-0.00626973
-0.00632796
-0.0065675
-0.00690837
-0.0072626
-0.007561
-0.00779542
-0.00796033
-0.00808787
-0.00820131
-0.00832071
-0.00843259
-0.00850489
-0.00848188
-0.00833044
-0.00805773
-0.00767453
-0.00721786
-0.0067691
-0.00642661
0.00215304
0.00164905
0.0012207
0.000949319
0.00084803
0.000911867
0.00105348
0.00119348
0.00130363
0.00139134
0.00145892
0.00153809
0.00166688
0.00186792
0.00215449
0.00252557
0.00284276
0.00299603
0.00292135
0.00261715
-0.00230082
-0.00215173
-0.00193002
-0.00169106
-0.00149977
-0.00140379
-0.00138653
-0.0013942
-0.00144482
-0.00148826
-0.00152023
-0.00149982
-0.00142783
-0.00132602
-0.00127674
-0.00137922
-0.00161515
-0.00190581
-0.00216622
-0.00230979
0.00148385
0.00165529
0.00179833
0.00191273
0.00199555
0.00206395
0.00207049
0.00207638
0.00204248
0.00205232
0.00206869
0.00211615
0.00214701
0.0021089
0.00198645
0.00174989
0.0015025
0.00131964
0.00126414
0.00133652
-0.000744059
-0.000546428
-0.000430226
-0.0003525
-0.000349731
-0.000337602
-0.000349752
-0.000336797
-0.000367555
-0.000345697
-0.000356142
-0.000412025
-0.000585798
-0.000895949
-0.00131414
-0.00165027
-0.0017422
-0.00160443
-0.00132279
-0.00100901
0.00120488
0.00131407
0.00137168
0.00141708
0.00143068
0.00143787
0.00140324
0.0013899
0.00132511
0.00133391
0.00127647
0.00115176
0.000879278
0.000526101
0.000265049
0.000194623
0.000321334
0.000562116
0.000825886
0.00104856
-0.000150006
-0.000110697
-0.000103953
-9.83323e-05
-0.000109734
-8.47642e-05
-8.52791e-05
-5.68159e-05
-8.85952e-05
-6.48339e-05
-0.000182344
-0.000455256
-0.000865877
-0.00126904
-0.00140013
-0.00124845
-0.000936756
-0.000624524
-0.000382336
-0.000229347
0.000764034
0.000812913
0.000836298
0.00086108
0.000849287
0.000845604
0.000807972
0.000787495
0.000718435
0.000707497
0.000546887
0.00023152
-0.000173218
-0.000362319
-0.000309433
-7.78853e-05
0.000206566
0.000433312
0.000595527
0.000699031
1.35627e-07
1.74495e-06
-9.23945e-06
-1.09289e-05
-1.23725e-05
9.55798e-06
1.14043e-05
3.13306e-05
3.4961e-06
6.60445e-06
-0.000188945
-0.000597231
-0.00100266
-0.00108574
-0.000870711
-0.00057956
-0.000314742
-0.000150327
-5.41798e-05
-1.2039e-05
0.000441912
0.000466401
0.000477126
0.000487556
0.000474688
0.000466272
0.000435823
0.00041348
0.000360094
0.000342694
0.000161459
-0.000210363
-0.000462724
-0.000448527
-0.000215773
9.75095e-06
0.000194598
0.000300043
0.000370884
0.000412523
4.4229e-05
4.21414e-05
3.32197e-05
3.50462e-05
3.42908e-05
4.93475e-05
4.97046e-05
6.60104e-05
4.88437e-05
7.34402e-05
-0.000104182
-0.000534992
-0.000716956
-0.000634387
-0.000390594
-0.000205289
-6.7156e-05
-4.11784e-06
3.28156e-05
4.34445e-05
0.000251184
0.000262902
0.000266682
0.000269804
0.00025862
0.000249848
0.000226245
0.000208639
0.000173235
0.000192174
5.5096e-05
-0.000227743
-0.000332359
-0.000226196
-4.54239e-05
6.89702e-05
0.000154732
0.000191213
0.000221409
0.000237339
5.52031e-05
5.51353e-05
5.06218e-05
5.40521e-05
5.28557e-05
6.41192e-05
6.37572e-05
8.73118e-05
8.39342e-05
0.000190269
7.55062e-05
-0.000272258
-0.000356335
-0.000290632
-0.000145008
-6.32327e-05
4.77711e-06
2.88358e-05
4.88242e-05
5.33983e-05
0.000145653
0.000150812
0.000151
0.000151284
0.000141498
0.000133706
0.000114547
0.000102377
8.17175e-05
0.000139063
9.81021e-05
-5.16288e-05
-0.00010876
-5.34798e-05
3.36753e-05
7.06524e-05
0.000108288
0.000118098
0.000133056
0.000138847
5.29576e-05
5.46565e-05
5.31641e-05
5.67078e-05
5.54978e-05
6.44775e-05
6.47675e-05
9.3297e-05
0.000105263
0.000280155
0.000267024
-5.0657e-05
-0.000137032
-0.000139589
-7.50608e-05
-3.47142e-05
1.12358e-05
2.69889e-05
4.41457e-05
4.90263e-05
8.91157e-05
9.13096e-05
9.00921e-05
8.93007e-05
8.09538e-05
7.40734e-05
5.76983e-05
4.7076e-05
2.90049e-05
8.60751e-05
0.000195901
3.70532e-05
-1.9411e-05
-1.94061e-05
2.15365e-05
3.49296e-05
6.3452e-05
7.0249e-05
8.19796e-05
8.50401e-05
4.6384e-05
4.8573e-05
4.8469e-05
5.12986e-05
5.01924e-05
5.61816e-05
5.59802e-05
7.23536e-05
6.8496e-05
0.000106985
6.6469e-05
-3.07775e-05
-4.0142e-05
-5.48688e-05
-2.08978e-05
-1.19115e-05
1.47779e-05
2.35166e-05
3.72803e-05
4.18358e-05
5.95428e-05
6.02863e-05
5.87812e-05
5.76851e-05
5.09593e-05
4.50847e-05
3.22847e-05
2.1869e-05
9.77288e-06
9.09297e-06
4.07778e-05
9.83087e-06
1.88953e-05
1.65489e-05
3.63675e-05
3.51586e-05
4.91107e-05
4.9225e-05
5.62363e-05
5.71449e-05
3.95863e-05
4.14064e-05
4.16895e-05
4.3538e-05
4.24344e-05
4.58669e-05
4.58145e-05
5.38745e-05
5.14651e-05
5.81531e-05
3.35678e-05
-1.5475e-05
-1.68326e-05
-3.05281e-05
-8.36449e-06
-4.55702e-06
1.4591e-05
2.06578e-05
3.16234e-05
3.53761e-05
4.37971e-05
4.38944e-05
4.26015e-05
4.15069e-05
3.63617e-05
3.16344e-05
2.21417e-05
1.32281e-05
4.42209e-06
-2.43834e-06
1.15553e-05
6.41678e-06
2.27479e-05
2.05356e-05
3.41701e-05
3.02795e-05
3.89024e-05
3.74295e-05
4.21044e-05
4.21978e-05
3.4121e-05
3.52206e-05
3.54736e-05
3.64242e-05
3.51143e-05
3.67187e-05
3.64948e-05
3.97676e-05
3.90724e-05
3.78453e-05
2.539e-05
-5.23315e-06
-6.21064e-06
-1.71482e-05
-1.94428e-06
4.36342e-07
1.47174e-05
1.92826e-05
2.78205e-05
3.0538e-05
3.50633e-05
3.48385e-05
3.39452e-05
3.29666e-05
2.91549e-05
2.55994e-05
1.88308e-05
1.17235e-05
5.84291e-06
-9.16978e-07
6.80714e-06
6.97643e-06
2.18225e-05
1.97558e-05
2.98183e-05
2.60928e-05
3.20269e-05
3.05793e-05
3.39894e-05
3.38448e-05
3.02548e-05
3.05455e-05
3.0747e-05
3.09608e-05
2.94885e-05
2.98322e-05
2.91991e-05
2.96646e-05
3.00581e-05
2.61777e-05
2.10643e-05
7.85396e-07
1.06844e-06
-6.94514e-06
3.90293e-06
5.45004e-06
1.58482e-05
1.92372e-05
2.56042e-05
2.73443e-05
3.01483e-05
2.95193e-05
2.90785e-05
2.8155e-05
2.52093e-05
2.26131e-05
1.84066e-05
1.24989e-05
9.3103e-06
3.23379e-06
8.50166e-06
8.23258e-06
2.00088e-05
1.76114e-05
2.55631e-05
2.28957e-05
2.72461e-05
2.6445e-05
2.91233e-05
2.88111e-05
2.77344e-05
2.72061e-05
2.75199e-05
2.72576e-05
2.55553e-05
2.52107e-05
2.42464e-05
2.28778e-05
2.39369e-05
1.92593e-05
1.82225e-05
4.72351e-06
6.75267e-06
9.8965e-07
9.0162e-06
1.00768e-05
1.72709e-05
1.98437e-05
2.44598e-05
2.52721e-05
2.72916e-05
2.61703e-05
2.61934e-05
2.51849e-05
2.28048e-05
2.12051e-05
1.83582e-05
1.3519e-05
1.28518e-05
6.62507e-06
1.15807e-05
9.01747e-06
1.84065e-05
1.58809e-05
2.20739e-05
2.06808e-05
2.39772e-05
2.39812e-05
2.60764e-05
2.56201e-05
2.59869e-05
2.49973e-05
2.55821e-05
2.47119e-05
2.31235e-05
2.24063e-05
2.15317e-05
1.86809e-05
2.02995e-05
1.52306e-05
1.69628e-05
7.57568e-06
1.1137e-05
6.4094e-06
1.29336e-05
1.3654e-05
1.85878e-05
2.06957e-05
2.37136e-05
2.4046e-05
2.56855e-05
2.36321e-05
2.44619e-05
2.33673e-05
2.10903e-05
2.01357e-05
1.83247e-05
1.39511e-05
1.51969e-05
8.86351e-06
1.39797e-05
9.66639e-06
1.75657e-05
1.4641e-05
1.99071e-05
1.95016e-05
2.15965e-05
2.26074e-05
2.42778e-05
2.34727e-05
2.53571e-05
2.33725e-05
2.45187e-05
2.30608e-05
2.1242e-05
2.12584e-05
1.98683e-05
1.62314e-05
1.92492e-05
1.27242e-05
1.72015e-05
8.92769e-06
1.42939e-05
1.01882e-05
1.53472e-05
1.64818e-05
1.93823e-05
2.15416e-05
2.32068e-05
2.28778e-05
2.43532e-05
2.18371e-05
2.35261e-05
2.18108e-05
1.99119e-05
1.95133e-05
1.84012e-05
1.33818e-05
1.67227e-05
9.64458e-06
1.57957e-05
9.84229e-06
1.75829e-05
1.35191e-05
1.85186e-05
1.87834e-05
2.01228e-05
2.20015e-05
2.27504e-05
2.2093e-05
2.52461e-05
2.14806e-05
2.40907e-05
2.24892e-05
1.97617e-05
2.03838e-05
1.91915e-05
1.46754e-05
1.91727e-05
1.13476e-05
1.79592e-05
9.72161e-06
1.65635e-05
1.21726e-05
1.71581e-05
1.85361e-05
1.91126e-05
2.23192e-05
2.33081e-05
2.18296e-05
2.38644e-05
1.99621e-05
2.2989e-05
2.07936e-05
1.83052e-05
1.95055e-05
1.81947e-05
1.23461e-05
1.82122e-05
8.83784e-06
1.75625e-05
8.977e-06
1.77308e-05
1.26209e-05
1.73312e-05
1.87803e-05
1.86726e-05
2.1781e-05
2.16487e-05
2.03575e-05
2.50881e-05
2.02222e-05
2.41766e-05
2.15141e-05
1.8551e-05
2.04116e-05
1.88142e-05
1.29414e-05
1.98369e-05
9.99945e-06
1.92115e-05
9.61819e-06
1.85485e-05
1.2753e-05
1.78825e-05
1.97564e-05
1.89121e-05
2.31181e-05
2.27036e-05
2.08911e-05
2.40706e-05
1.72671e-05
2.29559e-05
2.03817e-05
1.56968e-05
1.99657e-05
1.79252e-05
1.03422e-05
1.93954e-05
7.0979e-06
1.89718e-05
7.42077e-06
1.82881e-05
1.11237e-05
1.61225e-05
1.93844e-05
1.64094e-05
2.18541e-05
2.10099e-05
1.78053e-05
2.51529e-05
1.83458e-05
2.4681e-05
2.07503e-05
1.68882e-05
2.10919e-05
1.83922e-05
1.06944e-05
2.13676e-05
7.71485e-06
2.10965e-05
8.04771e-06
2.02283e-05
1.19522e-05
1.79761e-05
2.06223e-05
1.77103e-05
2.40065e-05
2.19809e-05
1.94769e-05
2.4156e-05
1.40265e-05
2.37933e-05
1.9236e-05
1.23527e-05
2.11387e-05
1.74369e-05
6.62515e-06
2.1107e-05
3.59149e-06
2.08148e-05
4.23936e-06
1.92914e-05
8.31623e-06
1.46169e-05
1.96849e-05
1.35661e-05
2.25458e-05
1.94875e-05
1.47197e-05
2.58201e-05
1.54951e-05
2.56573e-05
1.97797e-05
1.36872e-05
2.23953e-05
1.76891e-05
7.65549e-06
2.29512e-05
4.57539e-06
2.28188e-05
5.33102e-06
2.1478e-05
9.46289e-06
1.73872e-05
2.16346e-05
1.52229e-05
2.49633e-05
2.08107e-05
1.66265e-05
2.50888e-05
7.58458e-06
2.63957e-05
1.82533e-05
5.3892e-06
2.43557e-05
1.68445e-05
-1.25168e-06
2.46735e-05
-3.72891e-06
2.4328e-05
-2.6675e-06
2.17186e-05
1.89399e-06
1.20256e-05
2.10873e-05
7.47112e-06
2.46144e-05
1.7827e-05
8.76287e-06
2.62146e-05
1.0338e-05
2.75046e-05
1.76161e-05
8.19856e-06
2.50089e-05
1.59316e-05
1.69199e-06
2.51563e-05
-1.26907e-06
2.48627e-05
-2.00872e-07
2.26542e-05
4.18469e-06
1.55156e-05
2.18275e-05
1.01637e-05
2.62348e-05
1.79923e-05
1.17829e-05
2.82832e-05
-6.76463e-06
3.40719e-05
1.44177e-05
-1.19753e-05
3.4025e-05
1.38324e-05
-1.99369e-05
3.23839e-05
-2.06821e-05
3.1314e-05
-1.89726e-05
2.70517e-05
-1.40784e-05
6.78617e-06
2.45746e-05
-6.66899e-06
3.08993e-05
1.29156e-05
-5.60545e-06
-0.0109868
-0.0105944
-0.0102887
-0.0100773
-0.00996098
-0.00994865
-0.0100697
-0.0103047
-0.0106476
-0.0110743
-0.0115625
-0.0120609
-0.0125066
-0.0128215
-0.0129548
-0.0129171
-0.0127164
-0.0123683
-0.011923
-0.0114434
0.00232621
0.00228031
0.00214922
0.00198783
0.00183383
0.00174401
0.00167497
0.00158984
0.00146776
0.00131344
0.00111143
0.000888397
0.000699384
0.000605156
0.000667443
0.000935753
0.00131238
0.00170486
0.0020361
0.00225042
-0.00233641
-0.00210109
-0.00191569
-0.00178004
-0.00173071
-0.00178673
-0.00191443
-0.00206434
-0.00228237
-0.0025385
-0.00286995
-0.00322095
-0.00352357
-0.00369322
-0.00372968
-0.00365452
-0.00346613
-0.00318807
-0.00288642
-0.00259712
0.00291028
0.00297366
0.00299787
0.0030153
0.00302026
0.00302017
0.00295353
0.00287541
0.00270878
0.0025159
0.00218812
0.00181915
0.00151272
0.00138236
0.00150993
0.00176953
0.002108
0.00241336
0.0026477
0.00281063
-0.000458586
-0.0003109
-0.000238
-0.000191034
-0.00022855
-0.000244326
-0.000305697
-0.000352601
-0.000508078
-0.000704295
-0.00112499
-0.00163085
-0.00205872
-0.00228686
-0.00231017
-0.00212761
-0.00177023
-0.0013623
-0.000981274
-0.000674098
0.00202441
0.00212604
0.00217662
0.00222238
0.00221865
0.00220853
0.00212568
0.0020541
0.00185853
0.00163444
0.00112051
0.000583571
0.000208269
0.000148365
0.000363917
0.000721948
0.00110019
0.00142774
0.00169151
0.0018896
6.06491e-05
0.000104661
0.000108768
0.000112963
9.06039e-05
0.000112615
8.22516e-05
7.50051e-05
-7.18708e-05
-0.000282447
-0.000891025
-0.00153956
-0.00194214
-0.00199608
-0.00169888
-0.00124499
-0.000786641
-0.000429663
-0.000177206
-2.09321e-05
0.00125595
0.0013261
0.00135883
0.00139283
0.00136831
0.00135443
0.00127738
0.00121143
0.00102324
0.000771389
0.00011562
-0.000489572
-0.000756647
-0.000571883
-0.000172672
0.000240288
0.000601651
0.000855757
0.00104164
0.00116892
0.000173768
0.000183596
0.000171163
0.000172265
0.000164773
0.000189047
0.000169169
0.000164377
4.11013e-05
-0.00018116
-0.000863753
-0.00150394
-0.0017187
-0.00145617
-0.000968699
-0.000552345
-0.000224434
-3.10405e-05
9.07478e-05
0.000150611
0.000743452
0.000783609
0.00079991
0.000815477
0.000792678
0.000777394
0.000717488
0.00066239
0.000518161
0.000290324
-0.000337116
-0.000847105
-0.000856228
-0.000556908
-0.000132864
0.000166548
0.000398581
0.000530502
0.000630951
0.000695515
0.00017902
0.000182783
0.000172527
0.000178234
0.00017287
0.000191191
0.000176549
0.00018054
9.87219e-05
-4.70228e-05
-0.000623429
-0.00115686
-0.00109762
-0.0007946
-0.000407463
-0.000171901
6.53252e-06
8.88853e-05
0.000147366
0.000170256
0.00043652
0.000457476
0.000463513
0.00046966
0.00045051
0.000437502
0.000393626
0.000357591
0.000265866
0.000139352
-0.000326241
-0.000619861
-0.000506723
-0.000239623
3.32973e-05
0.000170645
0.000283866
0.000332821
0.000382684
0.000411437
0.000155861
0.000160498
0.000155579
0.000162901
0.000158193
0.000173649
0.00016441
0.000190831
0.000156144
0.000180894
-0.000199739
-0.000575257
-0.000489154
-0.000328
-0.000117498
-2.51227e-05
6.6878e-05
9.94997e-05
0.000135265
0.000147625
0.000262259
0.000272909
0.000273749
0.000276106
0.000259871
0.000249762
0.000216737
0.000198038
0.000150913
0.000142315
-8.04706e-05
-0.000198057
-0.000125539
-1.03204e-05
0.000111801
0.000143398
0.00019516
0.000207825
0.000235748
0.00024834
0.000127521
0.000133295
0.000132139
0.000139194
0.000135298
0.000148783
0.000144393
0.000185348
0.000191667
0.000365576
0.000228874
-0.000146372
-0.000154564
-0.000139836
-4.82547e-05
-1.03907e-05
5.47041e-05
7.5926e-05
0.000106757
0.000117687
0.000166164
0.000171879
0.000170707
0.000171402
0.00015776
0.000149358
0.000122331
0.000109804
7.80669e-05
0.000145086
0.000251639
8.32822e-06
-2.29433e-05
-1.50785e-05
5.42493e-05
6.77588e-05
0.000114967
0.000125814
0.000149141
0.000156849
0.000102666
0.000108157
0.000108637
0.000114261
0.000110955
0.000120337
0.000116541
0.000141314
0.000130457
0.000185717
0.000108641
-6.10595e-05
-5.50113e-05
-7.62973e-05
-1.48448e-05
-4.36422e-06
4.27438e-05
5.73103e-05
8.3414e-05
9.29054e-05
0.000114306
0.000117279
0.000115616
0.00011555
0.000104557
9.73614e-05
7.62714e-05
6.32568e-05
4.14082e-05
4.32991e-05
7.5301e-05
4.57355e-06
2.91e-05
2.15192e-05
6.15647e-05
5.82063e-05
8.67182e-05
8.86092e-05
0.000104391
0.000108086
8.38013e-05
8.79592e-05
8.87524e-05
9.25728e-05
8.95628e-05
9.50951e-05
9.22672e-05
0.000104265
9.67814e-05
0.000106188
6.3407e-05
-2.57684e-05
-1.74724e-05
-4.13633e-05
2.93276e-07
3.54408e-06
3.81841e-05
4.77827e-05
6.82662e-05
7.54132e-05
8.58892e-05
8.73026e-05
8.58317e-05
8.53881e-05
7.68855e-05
7.09902e-05
5.52822e-05
4.3235e-05
2.73664e-05
1.71079e-05
3.10762e-05
8.91395e-06
3.95647e-05
3.0938e-05
5.91642e-05
5.14818e-05
7.03296e-05
6.89206e-05
7.9892e-05
8.14742e-05
7.06252e-05
7.31115e-05
7.37287e-05
7.59008e-05
7.28201e-05
7.5528e-05
7.30741e-05
7.7505e-05
7.37396e-05
7.0046e-05
4.88335e-05
-5.59431e-06
5.00195e-07
-1.95295e-05
9.7868e-06
1.08977e-05
3.66757e-05
4.3314e-05
5.89587e-05
6.37779e-05
6.98122e-05
7.01861e-05
6.9215e-05
6.85672e-05
6.21266e-05
5.76333e-05
4.6369e-05
3.61412e-05
2.5761e-05
1.41796e-05
2.27216e-05
1.40108e-05
4.07086e-05
3.28649e-05
5.37879e-05
4.64142e-05
5.97399e-05
5.78584e-05
6.58674e-05
6.64284e-05
6.19979e-05
6.27766e-05
6.32984e-05
6.40935e-05
6.09355e-05
6.17125e-05
5.92167e-05
5.91797e-05
5.8168e-05
5.01595e-05
4.18021e-05
6.18008e-06
1.242e-05
-2.85853e-06
1.84775e-05
1.86749e-05
3.74407e-05
4.21084e-05
5.365e-05
5.65015e-05
6.06709e-05
5.99194e-05
5.96158e-05
5.87011e-05
5.35858e-05
5.03075e-05
4.31163e-05
3.41112e-05
2.87467e-05
1.7615e-05
2.47566e-05
1.81922e-05
3.95124e-05
3.201e-05
4.84004e-05
4.28949e-05
5.26335e-05
5.15315e-05
5.75956e-05
5.74196e-05
5.66526e-05
5.57389e-05
5.65223e-05
5.63209e-05
5.29317e-05
5.27084e-05
5.01698e-05
4.71844e-05
4.82476e-05
3.88365e-05
3.79231e-05
1.37753e-05
2.15606e-05
1.00096e-05
2.60579e-05
2.5995e-05
3.90373e-05
4.25699e-05
5.08413e-05
5.19667e-05
5.54023e-05
5.34067e-05
5.39215e-05
5.25358e-05
4.82635e-05
4.63706e-05
4.14308e-05
3.3529e-05
3.28059e-05
2.11319e-05
2.93029e-05
2.07491e-05
3.82473e-05
3.11416e-05
4.40362e-05
4.07902e-05
4.79342e-05
4.80719e-05
5.2557e-05
5.18005e-05
5.32431e-05
5.10939e-05
5.25328e-05
5.11325e-05
4.79235e-05
4.72909e-05
4.51554e-05
3.97408e-05
4.27102e-05
3.23515e-05
3.67217e-05
1.90312e-05
2.86288e-05
1.88238e-05
3.18819e-05
3.18179e-05
4.06564e-05
4.37869e-05
4.91391e-05
4.92589e-05
5.25236e-05
4.85849e-05
5.06002e-05
4.86901e-05
4.45299e-05
4.37271e-05
4.04076e-05
3.27219e-05
3.58194e-05
2.34288e-05
3.31924e-05
2.24625e-05
3.79321e-05
3.04857e-05
4.14524e-05
4.00889e-05
4.45539e-05
4.64264e-05
4.9618e-05
4.80536e-05
5.19181e-05
4.76667e-05
5.04108e-05
4.77724e-05
4.41627e-05
4.48617e-05
4.21375e-05
3.51553e-05
4.13206e-05
2.82039e-05
3.78214e-05
2.15428e-05
3.38693e-05
2.48312e-05
3.55076e-05
3.65187e-05
4.15454e-05
4.52281e-05
4.80379e-05
4.69373e-05
5.04447e-05
4.50135e-05
4.89041e-05
4.56728e-05
4.18381e-05
4.22652e-05
3.99252e-05
3.07592e-05
3.81279e-05
2.37104e-05
3.64512e-05
2.29517e-05
3.87659e-05
2.95105e-05
3.98444e-05
3.99348e-05
4.23134e-05
4.5996e-05
4.72269e-05
4.55076e-05
5.16558e-05
4.39695e-05
4.96204e-05
4.62614e-05
4.10996e-05
4.33093e-05
4.07725e-05
3.18809e-05
4.16517e-05
2.54756e-05
3.97867e-05
2.26543e-05
3.78055e-05
2.78222e-05
3.8152e-05
4.00541e-05
4.07931e-05
4.67123e-05
4.78782e-05
4.48051e-05
4.98062e-05
4.13107e-05
4.81444e-05
4.36405e-05
3.85576e-05
4.21174e-05
3.92384e-05
2.80938e-05
4.07104e-05
2.15391e-05
3.98038e-05
2.14086e-05
3.97723e-05
2.82911e-05
3.83187e-05
4.06587e-05
3.98454e-05
4.61831e-05
4.54167e-05
4.23652e-05
5.1587e-05
4.10053e-05
4.98921e-05
4.43424e-05
3.82413e-05
4.34696e-05
3.98921e-05
2.81266e-05
4.33045e-05
2.23721e-05
4.25776e-05
2.18401e-05
4.13476e-05
2.82664e-05
3.90664e-05
4.23811e-05
3.98053e-05
4.83205e-05
4.66816e-05
4.25971e-05
5.0325e-05
3.62029e-05
4.84434e-05
4.24904e-05
3.35956e-05
4.31086e-05
3.84719e-05
2.37107e-05
4.32056e-05
1.75586e-05
4.28659e-05
1.8186e-05
4.13944e-05
2.55373e-05
3.64915e-05
4.21222e-05
3.58032e-05
4.68765e-05
4.40741e-05
3.77609e-05
5.20014e-05
3.67572e-05
5.11416e-05
4.26666e-05
3.42837e-05
4.50336e-05
3.88727e-05
2.30844e-05
4.64924e-05
1.72724e-05
4.64534e-05
1.81384e-05
4.45545e-05
2.59868e-05
3.88435e-05
4.41571e-05
3.68723e-05
5.02165e-05
4.50795e-05
3.92774e-05
5.0856e-05
2.97496e-05
5.03983e-05
4.01947e-05
2.6954e-05
4.56669e-05
3.72702e-05
1.62192e-05
4.68459e-05
1.0302e-05
4.68148e-05
1.17525e-05
4.37497e-05
1.99924e-05
3.39308e-05
4.31213e-05
3.0234e-05
4.86225e-05
4.11753e-05
3.18135e-05
5.3464e-05
3.03215e-05
5.36178e-05
4.04738e-05
2.7239e-05
4.81952e-05
3.7245e-05
1.58828e-05
5.02556e-05
9.89153e-06
5.04676e-05
1.16637e-05
4.73857e-05
2.01693e-05
3.73169e-05
4.61815e-05
3.12121e-05
5.25312e-05
4.24408e-05
3.31473e-05
5.28014e-05
1.78497e-05
5.5511e-05
3.77861e-05
1.4122e-05
5.2001e-05
3.56036e-05
1.70854e-06
5.3672e-05
-3.4718e-06
5.35342e-05
-1.14894e-06
4.83596e-05
8.06666e-06
2.94475e-05
4.57277e-05
1.90401e-05
5.27083e-05
3.75484e-05
2.0907e-05
5.48601e-05
1.95019e-05
5.81956e-05
3.62208e-05
1.55904e-05
5.43563e-05
3.37681e-05
3.09762e-06
5.56372e-05
-2.68456e-06
5.55066e-05
-2.00748e-07
5.0551e-05
8.9336e-06
3.35712e-05
4.72911e-05
2.07087e-05
5.58981e-05
3.69266e-05
2.30813e-05
5.81341e-05
-5.05609e-06
6.85114e-05
3.1123e-05
-1.32675e-05
6.84299e-05
3.03283e-05
-2.79155e-05
6.69527e-05
-3.07364e-05
6.5638e-05
-2.72757e-05
5.74357e-05
-1.74175e-05
2.13846e-05
5.15617e-05
-3.39055e-06
6.32255e-05
2.89523e-05
-1.63933e-06
-0.0135297
-0.0129807
-0.0125315
-0.0122039
-0.012012
-0.0119857
-0.0121411
-0.0124565
-0.0129212
-0.0134992
-0.0141545
-0.0148183
-0.0154095
-0.0158336
-0.016027
-0.0159973
-0.0157562
-0.0153252
-0.0147626
-0.0141414
0.0019344
0.00199129
0.00192508
0.00179071
0.00163346
0.00151836
0.00138222
0.0012074
0.000972661
0.000687766
0.000341666
-2.52666e-05
-0.000337012
-0.000510492
-0.000465354
-0.000152148
0.000325968
0.00085991
0.00135106
0.00172258
-0.00274638
-0.00243862
-0.00222234
-0.00208734
-0.0020733
-0.0021808
-0.00237765
-0.00261753
-0.00295217
-0.00334965
-0.00384933
-0.00437145
-0.00481343
-0.00505162
-0.0050794
-0.00489739
-0.00453534
-0.00405834
-0.00356792
-0.00312196
0.00338185
0.0034593
0.00347786
0.0034806
0.003458
0.00341393
0.00328827
0.00313282
0.00285453
0.00251836
0.00200372
0.00145078
0.00102378
0.00088779
0.00113744
0.00158351
0.00213136
0.00262092
0.00299159
0.00323987
-0.000285178
-0.000126161
-5.50989e-05
-1.88103e-05
-7.96678e-05
-0.0001208
-0.000230601
-0.000344154
-0.000611082
-0.000961827
-0.00160208
-0.00231549
-0.00284473
-0.00304784
-0.00291549
-0.00251676
-0.001951
-0.00138187
-0.000895908
-0.000529294
0.00247794
0.00259715
0.0026532
0.00269985
0.00267695
0.00264351
0.00251209
0.00237511
0.00206419
0.00167622
0.000918554
0.00018355
-0.00024916
-0.000194029
0.000213594
0.000771133
0.00130831
0.00174355
0.00207577
0.00231678
0.000290876
0.000348652
0.000355657
0.00035796
0.000326107
0.000334316
0.000266353
0.000205513
-5.07336e-05
-0.000428875
-0.00130561
-0.0021489
-0.00257548
-0.00248176
-0.0019789
-0.00134313
-0.00075226
-0.000310969
-3.79822e-06
0.000187804
0.00158486
0.00167346
0.00171332
0.00174986
0.00171285
0.00168293
0.00156687
0.00144678
0.00115076
0.000728896
-0.000200173
-0.000970974
-0.00120052
-0.000857809
-0.000266441
0.000288719
0.000752419
0.00107364
0.0013092
0.00147251
0.000370691
0.000392107
0.00038187
0.000385351
0.000369834
0.00038556
0.000336361
0.000289358
7.14538e-05
-0.0003127
-0.00126943
-0.00205861
-0.00219994
-0.00176818
-0.00110769
-0.000574985
-0.000163407
8.29733e-05
0.000244231
0.000330619
0.000967408
0.00102022
0.00104048
0.00105743
0.00102544
0.000999536
0.000910644
0.000815469
0.000585658
0.000209198
-0.000674612
-0.0012912
-0.00120096
-0.00074768
-0.000183042
0.000203773
0.000502617
0.000677383
0.000812929
0.000902079
0.000329505
0.00034133
0.000332264
0.000340399
0.00032876
0.00034206
0.000306595
0.000283511
0.000133289
-0.000135302
-0.000946326
-0.00156713
-0.00139596
-0.000962974
-0.000461247
-0.000160891
7.027e-05
0.000184063
0.000269284
0.000309251
0.000586643
0.000615413
0.000623103
0.000630371
0.000604106
0.000584623
0.000521064
0.000460991
0.000313394
8.69981e-05
-0.000576042
-0.000910414
-0.000694923
-0.000325329
3.16338e-05
0.000211618
0.000364258
0.000435788
0.000507731
0.000550829
0.000266199
0.000276527
0.000272391
0.000281862
0.000272394
0.000285915
0.000263677
0.000279673
0.000206658
0.000171447
-0.000374012
-0.000792583
-0.000621595
-0.000393154
-0.000119438
5.50507e-07
0.000124083
0.000173166
0.00022689
0.00024991
0.000364328
0.000379949
0.000381375
0.000384773
0.000362989
0.00034932
0.000303453
0.000274245
0.000198537
0.000146874
-0.000189877
-0.000322422
-0.000185642
-2.69214e-05
0.00013644
0.000181883
0.000256543
0.000279911
0.000322376
0.000343391
0.00020801
0.000218002
0.000217461
0.000226384
0.000218861
0.000232298
0.000220325
0.000262056
0.000254076
0.000423661
0.00020503
-0.000227919
-0.000194071
-0.000162123
-3.66754e-05
1.11397e-05
9.83506e-05
0.000129293
0.000173773
0.000192004
0.000238194
0.000247287
0.000246283
0.000247874
0.000229772
0.000219288
0.000183117
0.000166707
0.000120671
0.00018805
0.000272718
-3.08665e-05
-4.12282e-05
-2.5135e-05
7.11383e-05
9.17583e-05
0.000157832
0.000175713
0.000210412
0.000223744
0.000162741
0.000171327
0.000172241
0.000179321
0.00017308
0.000182715
0.000173586
0.000199916
0.000179853
0.000239168
0.000132107
-8.80829e-05
-6.91184e-05
-9.18574e-05
-6.22727e-06
9.34544e-06
7.47313e-05
9.62093e-05
0.000133363
0.000148119
0.000168001
0.000173266
0.000171591
0.000172191
0.000157572
0.000148858
0.000120844
0.000104901
7.37268e-05
7.41039e-05
9.73962e-05
-5.6361e-06
3.07105e-05
2.03857e-05
7.89554e-05
7.74248e-05
0.000120076
0.000126052
0.000150516
0.000157935
0.000130641
0.000136902
0.000137926
0.000142725
0.000137222
0.000142754
0.000135894
0.000148009
0.000134463
0.000142454
8.56128e-05
-3.37915e-05
-1.73131e-05
-4.70615e-05
1.15568e-05
1.66516e-05
6.50185e-05
7.89074e-05
0.000107825
0.000118535
0.000128444
0.000131304
0.000129741
0.000129697
0.000118243
0.000111104
9.01686e-05
7.52101e-05
5.28921e-05
3.85513e-05
4.83439e-05
9.58312e-06
5.0187e-05
3.66961e-05
7.82277e-05
6.9927e-05
9.90488e-05
9.9766e-05
0.000117195
0.000121134
0.000109141
0.000112861
0.000113558
0.000116255
0.000110966
0.000113389
0.000107756
0.00011116
0.000103509
9.60463e-05
6.81762e-05
-4.55288e-06
8.11689e-06
-1.7794e-05
2.3937e-05
2.53213e-05
6.12521e-05
7.04808e-05
9.24035e-05
9.94699e-05
0.000105598
0.000106698
0.000105644
0.000105126
9.62492e-05
9.07345e-05
7.55907e-05
6.25326e-05
4.80607e-05
3.17208e-05
3.88041e-05
2.0335e-05
5.54219e-05
4.28241e-05
7.3674e-05
6.50025e-05
8.59037e-05
8.51994e-05
9.80132e-05
9.99801e-05
9.54091e-05
9.66369e-05
9.72109e-05
9.81241e-05
9.29589e-05
9.32779e-05
8.82339e-05
8.64542e-05
8.32527e-05
7.08308e-05
6.00113e-05
1.25773e-05
2.46477e-05
4.38089e-06
3.50837e-05
3.49568e-05
6.11466e-05
6.74506e-05
8.35846e-05
8.77037e-05
9.2407e-05
9.16832e-05
9.14186e-05
9.03472e-05
8.31264e-05
7.90491e-05
6.90772e-05
5.72852e-05
4.9836e-05
3.39194e-05
4.14954e-05
2.79715e-05
5.63836e-05
4.46303e-05
6.87478e-05
6.20671e-05
7.7401e-05
7.71466e-05
8.67628e-05
8.72767e-05
8.70239e-05
8.58037e-05
8.67867e-05
8.63357e-05
8.10508e-05
8.03764e-05
7.57849e-05
7.05498e-05
7.08847e-05
5.68533e-05
5.61644e-05
2.36795e-05
3.70497e-05
2.13118e-05
4.46425e-05
4.4177e-05
6.2509e-05
6.72607e-05
7.88089e-05
8.04463e-05
8.47716e-05
8.20842e-05
8.29184e-05
8.10395e-05
7.48495e-05
7.24676e-05
6.54572e-05
5.4725e-05
5.37004e-05
3.70842e-05
4.73099e-05
3.27337e-05
5.65988e-05
4.56653e-05
6.47889e-05
6.08066e-05
7.1983e-05
7.30143e-05
8.00199e-05
7.9389e-05
8.18548e-05
7.86461e-05
8.0658e-05
7.85845e-05
7.35488e-05
7.26603e-05
6.88696e-05
6.07064e-05
6.43659e-05
4.90233e-05
5.5714e-05
3.12664e-05
4.6573e-05
3.2934e-05
5.19493e-05
5.16765e-05
6.4113e-05
6.84645e-05
7.5984e-05
7.60521e-05
8.06019e-05
7.50865e-05
7.79839e-05
7.51818e-05
6.91017e-05
6.82399e-05
6.32919e-05
5.24924e-05
5.69787e-05
3.91418e-05
5.25542e-05
3.58232e-05
5.75839e-05
4.63632e-05
6.26555e-05
6.10917e-05
6.81647e-05
7.13071e-05
7.61111e-05
7.41505e-05
7.96645e-05
7.33817e-05
7.7391e-05
7.35783e-05
6.80195e-05
6.90358e-05
6.47905e-05
5.44847e-05
6.30324e-05
4.39847e-05
5.8e-05
3.50523e-05
5.37198e-05
4.07471e-05
5.65573e-05
5.78176e-05
6.49135e-05
7.02284e-05
7.42029e-05
7.25034e-05
7.78414e-05
6.97959e-05
7.54848e-05
7.08039e-05
6.48831e-05
6.59539e-05
6.21622e-05
4.91927e-05
5.98727e-05
3.88757e-05
5.7191e-05
3.69051e-05
5.96748e-05
4.61392e-05
6.14054e-05
6.1884e-05
6.55057e-05
7.11616e-05
7.3054e-05
7.04609e-05
7.90781e-05
6.79998e-05
7.61336e-05
7.10498e-05
6.34698e-05
6.69317e-05
6.28606e-05
4.97756e-05
6.39706e-05
4.03207e-05
6.13387e-05
3.65622e-05
5.92002e-05
4.45549e-05
5.98095e-05
6.25466e-05
6.37204e-05
7.22122e-05
7.3619e-05
6.9258e-05
7.70023e-05
6.44002e-05
7.44761e-05
6.7814e-05
6.0058e-05
6.56166e-05
6.10221e-05
4.50199e-05
6.3369e-05
3.55633e-05
6.20162e-05
3.50584e-05
6.18354e-05
4.49971e-05
5.99623e-05
6.35059e-05
6.23172e-05
7.18078e-05
7.06697e-05
6.605e-05
7.89969e-05
6.33276e-05
7.6466e-05
6.82655e-05
5.90034e-05
6.71983e-05
6.1564e-05
4.42639e-05
6.66329e-05
3.57654e-05
6.56636e-05
3.51633e-05
6.41213e-05
4.48377e-05
6.08266e-05
6.5833e-05
6.1911e-05
7.44511e-05
7.18532e-05
6.57307e-05
7.76556e-05
5.72162e-05
7.503e-05
6.58913e-05
5.31009e-05
6.70206e-05
5.98222e-05
3.85393e-05
6.7054e-05
2.96722e-05
6.66451e-05
3.05542e-05
6.46167e-05
4.13702e-05
5.78221e-05
6.58028e-05
5.69166e-05
7.31047e-05
6.86519e-05
5.97117e-05
7.96338e-05
5.68465e-05
7.82887e-05
6.57429e-05
5.2867e-05
6.9505e-05
6.00505e-05
3.67265e-05
7.12653e-05
2.827e-05
7.13055e-05
2.96595e-05
6.86364e-05
4.12292e-05
6.0224e-05
6.84095e-05
5.73781e-05
7.71495e-05
6.94203e-05
6.05388e-05
7.84879e-05
4.80188e-05
7.7859e-05
6.26216e-05
4.36687e-05
7.07065e-05
5.80323e-05
2.7898e-05
7.23304e-05
1.93398e-05
7.24327e-05
2.1531e-05
6.82046e-05
3.36624e-05
5.44569e-05
6.7487e-05
4.91186e-05
7.57249e-05
6.46093e-05
5.13204e-05
8.15916e-05
4.72579e-05
8.19797e-05
6.24784e-05
4.24904e-05
7.42133e-05
5.76759e-05
2.58523e-05
7.69004e-05
1.72598e-05
7.73188e-05
1.99856e-05
7.28064e-05
3.25798e-05
5.77528e-05
7.12359e-05
4.89903e-05
8.05532e-05
6.54704e-05
5.1527e-05
8.10244e-05
3.20692e-05
8.47368e-05
5.90082e-05
2.65018e-05
7.92987e-05
5.55058e-05
8.52093e-06
8.15214e-05
8.49414e-07
8.15231e-05
4.30311e-06
7.43646e-05
1.77644e-05
4.84982e-05
7.09316e-05
3.4229e-05
8.12024e-05
5.93384e-05
3.67065e-05
8.36213e-05
3.21624e-05
8.85872e-05
5.67037e-05
2.61638e-05
8.30289e-05
5.30216e-05
7.88331e-06
8.47125e-05
-3.54696e-07
8.46945e-05
3.40704e-06
7.74748e-05
1.69027e-05
5.24264e-05
7.30993e-05
3.44441e-05
8.54477e-05
5.79348e-05
3.74685e-05
8.72209e-05
4.29827e-06
0.000100641
5.06122e-05
-6.50203e-06
9.95061e-05
4.89354e-05
-2.72373e-05
9.79366e-05
-3.22011e-05
9.65414e-05
-2.73106e-05
8.53725e-05
-1.30471e-05
3.84737e-05
7.79155e-05
7.14346e-06
9.3847e-05
4.83567e-05
9.55369e-06
-0.0149496
-0.0143245
-0.0138108
-0.0134355
-0.0132217
-0.0132057
-0.0133948
-0.0137671
-0.0143086
-0.0149763
-0.0157257
-0.0164774
-0.0171393
-0.0176075
-0.0178139
-0.0177669
-0.0174814
-0.0169858
-0.0163463
-0.0156429
0.00141567
0.00152453
0.00149531
0.00138196
0.0012349
0.0011114
0.000935057
0.000702898
0.000392796
2.07202e-05
-0.000418851
-0.000873654
-0.00125305
-0.0014617
-0.0014089
-0.00105283
-0.000506962
0.000109751
0.000686407
0.00113711
-0.00310462
-0.0027485
-0.002509
-0.00237054
-0.00238091
-0.00252203
-0.00276667
-0.00307143
-0.00349005