/*--------------------------------*- C++ -*----------------------------------*\
| =========                 |                                                 |
| \\      /  F ield         | OpenFOAM: The Open Source CFD Toolbox           |
|  \\    /   O peration     | Version:  2.4.0                                 |
|   \\  /    A nd           | Web:      www.OpenFOAM.org                      |
|    \\/     M anipulation  |                                                 |
\*---------------------------------------------------------------------------*/
FoamFile
{
    version     2.0;
    format      ascii;
    class       volScalarField;
    location    "80";
    object      epsilon;
}
// * * * * * * * * * * * * * * * * * * * * * * * * * * * * * * * * * * * * * //

dimensions      [0 2 -3 0 0 0 0];

internalField   nonuniform List<scalar> 
283312
(
2.0124e-05
1.76085e-05
1.65533e-05
1.71685e-05
1.91928e-05
2.20827e-05
2.52203e-05
2.81387e-05
3.06229e-05
3.26177e-05
3.41212e-05
3.51152e-05
3.55743e-05
3.55263e-05
3.50516e-05
3.41661e-05
3.27912e-05
3.0768e-05
2.79726e-05
2.45304e-05
1.96485e-05
2.27225e-05
2.68249e-05
3.08811e-05
3.4126e-05
3.63368e-05
3.77061e-05
3.85338e-05
3.90999e-05
3.98415e-05
4.09856e-05
4.19336e-05
4.16722e-05
3.97609e-05
3.65019e-05
3.24744e-05
2.7982e-05
2.36579e-05
2.04285e-05
1.91248e-05
2.9348e-05
3.24624e-05
3.48118e-05
3.63764e-05
3.73398e-05
3.78662e-05
3.81209e-05
3.82798e-05
3.95308e-05
4.54457e-05
5.67893e-05
6.75574e-05
7.04064e-05
6.36433e-05
5.16527e-05
3.96004e-05
3.03098e-05
2.53338e-05
2.4527e-05
2.65383e-05
3.3515e-05
3.48091e-05
3.56769e-05
3.61527e-05
3.63806e-05
3.65039e-05
3.66283e-05
3.69803e-05
4.3676e-05
7.18254e-05
0.000118359
0.000157363
0.000165489
0.000141418
0.000104689
7.09774e-05
4.81958e-05
3.65997e-05
3.26893e-05
3.26078e-05
3.59063e-05
3.56636e-05
3.56594e-05
3.57031e-05
3.57707e-05
3.58531e-05
3.59813e-05
3.67184e-05
5.51714e-05
0.000123737
0.000220877
0.000295211
0.000313184
0.00027816
0.000210001
0.000138352
8.57172e-05
5.61378e-05
4.27805e-05
3.77551e-05
3.60322e-05
3.54478e-05
3.52797e-05
3.52474e-05
3.52777e-05
3.53469e-05
3.5478e-05
3.65198e-05
6.45319e-05
0.000159093
0.000277459
0.00036929
0.000387262
0.000332671
0.000241701
0.000153832
9.25945e-05
5.93722e-05
4.4365e-05
3.83932e-05
3.63693e-05
3.534e-05
3.50385e-05
3.49847e-05
3.50215e-05
3.50935e-05
3.52172e-05
3.64004e-05
6.61617e-05
0.00015239
0.000258353
0.000399989
0.000519414
0.000496472
0.000360624
0.00021765
0.000121689
7.15805e-05
4.91094e-05
3.99738e-05
3.55419e-05
3.49562e-05
3.48125e-05
3.48004e-05
3.48356e-05
3.48957e-05
3.49904e-05
3.53133e-05
4.58014e-05
7.51346e-05
0.00011453
0.00022576
0.000365276
0.000386245
0.000291304
0.000177353
0.000100404
6.12345e-05
4.43531e-05
3.78806e-05
3.4843e-05
3.46925e-05
3.46758e-05
3.4699e-05
3.47393e-05
3.47948e-05
3.48707e-05
3.49947e-05
3.54475e-05
3.51935e-05
3.5189e-05
7.06846e-05
0.000145401
0.000180861
0.000147079
9.64112e-05
6.19254e-05
4.49613e-05
3.80582e-05
3.56392e-05
3.46042e-05
3.4599e-05
3.46131e-05
3.4636e-05
3.46672e-05
3.47119e-05
3.47715e-05
3.48768e-05
3.50148e-05
3.35386e-05
3.16395e-05
3.66016e-05
5.83175e-05
7.25173e-05
6.45963e-05
5.06599e-05
4.12924e-05
3.69136e-05
3.52816e-05
3.47747e-05
3.45416e-05
3.45615e-05
3.45796e-05
3.46014e-05
3.4628e-05
3.46649e-05
3.47105e-05
3.47967e-05
3.48913e-05
3.3284e-05
3.22437e-05
3.05957e-05
3.38861e-05
3.80966e-05
3.80736e-05
3.64281e-05
3.52671e-05
3.4772e-05
3.46151e-05
3.45778e-05
3.45241e-05
3.45438e-05
3.45585e-05
3.45758e-05
3.45968e-05
3.4626e-05
3.46626e-05
3.47321e-05
3.48133e-05
3.30383e-05
3.20094e-05
2.92735e-05
2.8938e-05
3.09913e-05
3.27746e-05
3.37635e-05
3.42365e-05
3.44396e-05
3.45167e-05
3.45441e-05
3.45148e-05
3.45326e-05
3.45453e-05
3.45602e-05
3.4578e-05
3.46011e-05
3.46299e-05
3.46817e-05
3.4742e-05
3.31705e-05
3.15962e-05
2.77987e-05
2.72916e-05
2.96076e-05
3.19547e-05
3.34085e-05
3.41139e-05
3.44008e-05
3.45014e-05
3.45337e-05
3.45089e-05
3.45246e-05
3.45349e-05
3.45472e-05
3.45621e-05
3.45805e-05
3.46034e-05
3.46416e-05
3.47196e-05
3.33769e-05
3.26467e-05
2.91734e-05
2.83077e-05
3.01241e-05
3.21666e-05
3.34851e-05
3.41379e-05
3.44054e-05
3.44991e-05
3.45289e-05
3.45048e-05
3.45187e-05
3.45274e-05
3.4538e-05
3.45509e-05
3.4566e-05
3.45844e-05
3.46117e-05
3.4677e-05
3.27352e-05
3.03308e-05
2.70252e-05
2.74652e-05
2.99822e-05
3.22045e-05
3.35307e-05
3.41619e-05
3.44138e-05
3.44999e-05
3.45263e-05
3.45012e-05
3.45133e-05
3.45205e-05
3.45295e-05
3.45408e-05
3.45533e-05
3.45658e-05
3.45808e-05
3.45647e-05
3.11659e-05
2.53523e-05
2.31828e-05
2.55392e-05
2.92651e-05
3.20686e-05
3.3559e-05
3.41981e-05
3.44306e-05
3.4504e-05
3.45248e-05
3.44991e-05
3.45088e-05
3.45146e-05
3.45226e-05
3.45328e-05
3.45439e-05
3.45547e-05
3.45666e-05
3.45739e-05
3.42583e-05
3.39251e-05
3.38699e-05
3.40303e-05
3.42198e-05
3.43514e-05
3.4449e-05
3.45023e-05
3.45227e-05
3.45278e-05
3.45284e-05
3.44952e-05
3.45039e-05
3.45087e-05
3.45158e-05
3.45251e-05
3.4535e-05
3.45441e-05
3.45535e-05
3.45628e-05
3.45592e-05
3.4549e-05
3.45454e-05
3.45516e-05
3.45554e-05
3.45519e-05
3.45453e-05
3.45384e-05
3.45324e-05
3.4528e-05
3.45256e-05
3.44913e-05
3.44992e-05
3.45033e-05
3.45097e-05
3.45183e-05
3.45274e-05
3.45354e-05
3.4543e-05
3.4549e-05
3.45538e-05
3.45532e-05
3.45528e-05
3.45556e-05
3.45551e-05
3.45505e-05
3.45433e-05
3.45358e-05
3.45293e-05
3.45248e-05
3.45221e-05
3.44871e-05
3.44945e-05
3.4498e-05
3.45039e-05
3.45119e-05
3.45203e-05
3.45275e-05
3.45344e-05
3.454e-05
3.45445e-05
3.45452e-05
3.4545e-05
3.45461e-05
3.45452e-05
3.45415e-05
3.45358e-05
3.45297e-05
3.45244e-05
3.45205e-05
3.4518e-05
3.4483e-05
3.449e-05
3.4493e-05
3.44984e-05
3.45059e-05
3.45137e-05
3.45203e-05
3.45263e-05
3.45308e-05
3.45348e-05
3.45361e-05
3.45369e-05
3.45384e-05
3.45378e-05
3.45348e-05
3.45301e-05
3.45249e-05
3.45203e-05
3.45166e-05
3.45141e-05
3.44788e-05
3.44855e-05
3.44881e-05
3.44932e-05
3.45004e-05
3.45077e-05
3.45139e-05
3.45193e-05
3.45235e-05
3.45273e-05
3.45289e-05
3.45298e-05
3.45307e-05
3.453e-05
3.45276e-05
3.45238e-05
3.45196e-05
3.45157e-05
3.45124e-05
3.45101e-05
3.44748e-05
3.44812e-05
3.44835e-05
3.44883e-05
3.44952e-05
3.45021e-05
3.45078e-05
3.45127e-05
3.45164e-05
3.45198e-05
3.45216e-05
3.4523e-05
3.45242e-05
3.45238e-05
3.45219e-05
3.45187e-05
3.45151e-05
3.45116e-05
3.45086e-05
3.45063e-05
3.44709e-05
3.44771e-05
3.44792e-05
3.44838e-05
3.44904e-05
3.4497e-05
3.45024e-05
3.45069e-05
3.45103e-05
3.45135e-05
3.45154e-05
3.45168e-05
3.45178e-05
3.45175e-05
3.4516e-05
3.45135e-05
3.45104e-05
3.45074e-05
3.45047e-05
3.45024e-05
3.44672e-05
3.44733e-05
3.44752e-05
3.44796e-05
3.4486e-05
3.44923e-05
3.44973e-05
3.45014e-05
3.45046e-05
3.45075e-05
3.45095e-05
3.45111e-05
3.45122e-05
3.45122e-05
3.4511e-05
3.45089e-05
3.45063e-05
3.45036e-05
3.4501e-05
3.44988e-05
3.44637e-05
3.44697e-05
3.44714e-05
3.44757e-05
3.44819e-05
3.4488e-05
3.44927e-05
3.44966e-05
3.44995e-05
3.45022e-05
3.45042e-05
3.45058e-05
3.45069e-05
3.4507e-05
3.45062e-05
3.45045e-05
3.45023e-05
3.44999e-05
3.44975e-05
3.44954e-05
3.44604e-05
3.44663e-05
3.4468e-05
3.44721e-05
3.44781e-05
3.4484e-05
3.44885e-05
3.44921e-05
3.44947e-05
3.44973e-05
3.44993e-05
3.4501e-05
3.45022e-05
3.45025e-05
3.45019e-05
3.45006e-05
3.44987e-05
3.44965e-05
3.44943e-05
3.44922e-05
3.44573e-05
3.44632e-05
3.44648e-05
3.44688e-05
3.44747e-05
3.44804e-05
3.44847e-05
3.4488e-05
3.44905e-05
3.4493e-05
3.44949e-05
3.44966e-05
3.44979e-05
3.44983e-05
3.4498e-05
3.44969e-05
3.44953e-05
3.44934e-05
3.44913e-05
3.44892e-05
3.44545e-05
3.44603e-05
3.44618e-05
3.44658e-05
3.44716e-05
3.44772e-05
3.44812e-05
3.44844e-05
3.44867e-05
3.4489e-05
3.44909e-05
3.44927e-05
3.4494e-05
3.44946e-05
3.44945e-05
3.44937e-05
3.44923e-05
3.44906e-05
3.44885e-05
3.44865e-05
3.44519e-05
3.44577e-05
3.44592e-05
3.44631e-05
3.44688e-05
3.44743e-05
3.44781e-05
3.44811e-05
3.44832e-05
3.44855e-05
3.44874e-05
3.44892e-05
3.44906e-05
3.44913e-05
3.44914e-05
3.44909e-05
3.44897e-05
3.44881e-05
3.44861e-05
3.4484e-05
3.44495e-05
3.44553e-05
3.44567e-05
3.44606e-05
3.44662e-05
3.44715e-05
3.44753e-05
3.44781e-05
3.44801e-05
3.44822e-05
3.44841e-05
3.4486e-05
3.44874e-05
3.44883e-05
3.44886e-05
3.44882e-05
3.44872e-05
3.44858e-05
3.44838e-05
3.44817e-05
3.44475e-05
3.44532e-05
3.44548e-05
3.44586e-05
3.44641e-05
3.44694e-05
3.44729e-05
3.44755e-05
3.44774e-05
3.44795e-05
3.44814e-05
3.44833e-05
3.44849e-05
3.44858e-05
3.44864e-05
3.44862e-05
3.44853e-05
3.4484e-05
3.4482e-05
3.44799e-05
3.44454e-05
3.44511e-05
3.44527e-05
3.44565e-05
3.4462e-05
3.44671e-05
3.44705e-05
3.4473e-05
3.44748e-05
3.44768e-05
3.44788e-05
3.44808e-05
3.44823e-05
3.44834e-05
3.44841e-05
3.44841e-05
3.44834e-05
3.44822e-05
3.44801e-05
3.44779e-05
3.4444e-05
3.44497e-05
3.44513e-05
3.44551e-05
3.44605e-05
3.44656e-05
3.44689e-05
3.44712e-05
3.44728e-05
3.44749e-05
3.44769e-05
3.44789e-05
3.44806e-05
3.44818e-05
3.44827e-05
3.44829e-05
3.44823e-05
3.44812e-05
3.4479e-05
3.44767e-05
3.44421e-05
3.44478e-05
3.44495e-05
3.44533e-05
3.44587e-05
3.44638e-05
3.44669e-05
3.44691e-05
3.44706e-05
3.44727e-05
3.44747e-05
3.44769e-05
3.44786e-05
3.448e-05
3.4481e-05
3.44814e-05
3.44809e-05
3.44798e-05
3.44775e-05
3.4475e-05
3.44413e-05
3.4447e-05
3.44488e-05
3.44526e-05
3.4458e-05
3.44629e-05
3.44659e-05
3.4468e-05
3.44694e-05
3.44715e-05
3.44736e-05
3.44759e-05
3.44777e-05
3.44792e-05
3.44805e-05
3.4481e-05
3.44807e-05
3.44796e-05
3.44772e-05
3.44744e-05
3.44395e-05
3.44453e-05
3.44472e-05
3.44511e-05
3.44564e-05
3.44613e-05
3.44642e-05
3.44661e-05
3.44674e-05
3.44696e-05
3.44718e-05
3.44742e-05
3.44761e-05
3.44777e-05
3.44792e-05
3.44799e-05
3.44797e-05
3.44787e-05
3.4476e-05
3.4473e-05
3.44394e-05
3.44451e-05
3.44472e-05
3.44511e-05
3.44564e-05
3.44612e-05
3.44639e-05
3.44657e-05
3.44669e-05
3.44691e-05
3.44714e-05
3.4474e-05
3.44759e-05
3.44777e-05
3.44794e-05
3.44805e-05
3.44805e-05
3.44794e-05
3.44765e-05
3.44731e-05
3.4438e-05
3.44438e-05
3.44461e-05
3.44501e-05
3.44552e-05
3.446e-05
3.44626e-05
3.44643e-05
3.44654e-05
3.44678e-05
3.44702e-05
3.44729e-05
3.44749e-05
3.44767e-05
3.44787e-05
3.448e-05
3.44802e-05
3.44791e-05
3.44759e-05
3.44721e-05
3.44645e-05
3.44763e-05
3.44713e-05
3.44742e-05
3.44884e-05
3.44863e-05
3.44875e-05
3.45003e-05
3.4493e-05
3.45055e-05
3.44976e-05
3.45109e-05
3.45019e-05
3.45137e-05
3.45175e-05
3.45056e-05
3.45151e-05
3.45052e-05
3.4501e-05
3.45067e-05
2.1064e-05
1.85853e-05
1.77567e-05
1.86939e-05
2.10334e-05
2.41639e-05
2.74253e-05
3.0394e-05
3.28911e-05
3.48836e-05
3.63802e-05
3.73632e-05
3.78034e-05
3.77286e-05
3.72156e-05
3.62634e-05
3.47576e-05
3.25082e-05
2.94022e-05
2.56494e-05
2.11715e-05
2.46186e-05
2.89183e-05
3.29805e-05
3.61151e-05
3.81907e-05
3.94704e-05
4.02445e-05
4.07896e-05
4.15843e-05
4.28719e-05
4.39549e-05
4.36905e-05
4.16062e-05
3.80612e-05
3.36968e-05
2.88911e-05
2.43952e-05
2.12267e-05
2.02139e-05
3.11472e-05
3.42002e-05
3.64553e-05
3.79337e-05
3.88294e-05
3.93046e-05
3.95348e-05
3.96902e-05
4.10859e-05
4.77777e-05
6.05483e-05
7.25082e-05
7.54591e-05
6.77599e-05
5.45656e-05
4.15652e-05
3.17921e-05
2.67602e-05
2.61132e-05
2.82781e-05
3.50931e-05
3.62965e-05
3.70909e-05
3.75143e-05
3.77118e-05
3.78254e-05
3.7952e-05
3.83311e-05
4.57265e-05
7.72617e-05
0.000129252
0.000172232
0.000180179
0.000152588
0.000112056
7.54279e-05
5.09786e-05
3.86448e-05
3.44633e-05
3.42605e-05
3.735e-05
3.70126e-05
3.69631e-05
3.69864e-05
3.70472e-05
3.71297e-05
3.72642e-05
3.80623e-05
5.83782e-05
0.000135181
0.00024394
0.000326319
0.00034508
0.000304921
0.000228174
0.000148788
9.12391e-05
5.92339e-05
4.48347e-05
3.93756e-05
3.73613e-05
3.67226e-05
3.65364e-05
3.64985e-05
3.653e-05
3.66027e-05
3.6741e-05
3.78702e-05
6.86765e-05
0.000174972
0.000308271
0.000410313
0.000427945
0.000365395
0.000263157
0.000165603
9.84802e-05
6.24346e-05
4.62638e-05
3.98605e-05
3.7638e-05
3.65828e-05
3.6278e-05
3.62248e-05
3.62636e-05
3.63381e-05
3.64674e-05
3.77545e-05
7.05298e-05
0.000167992
0.000288922
0.000448873
0.000577199
0.000543123
0.000389058
0.00023188
0.000128159
7.46294e-05
5.08762e-05
4.13341e-05
3.67763e-05
3.61861e-05
3.60436e-05
3.60327e-05
3.60698e-05
3.61323e-05
3.62308e-05
3.65764e-05
4.81044e-05
8.17526e-05
0.000127998
0.000255344
0.000407021
0.000422884
0.000313575
0.000188033
0.00010505
6.34635e-05
4.58019e-05
3.91355e-05
3.60716e-05
3.59206e-05
3.59044e-05
3.5928e-05
3.59691e-05
3.60264e-05
3.61047e-05
3.62338e-05
3.6726e-05
3.66547e-05
3.71877e-05
7.83981e-05
0.000161503
0.000197189
0.000157247
0.000101363
6.43274e-05
4.64607e-05
3.93205e-05
3.68617e-05
3.58316e-05
3.58247e-05
3.58384e-05
3.58615e-05
3.58934e-05
3.59394e-05
3.60009e-05
3.61104e-05
3.62588e-05
3.4794e-05
3.30518e-05
3.92256e-05
6.35608e-05
7.7976e-05
6.82227e-05
5.27979e-05
4.27678e-05
3.81861e-05
3.65102e-05
3.59973e-05
3.57675e-05
3.57855e-05
3.58031e-05
3.58249e-05
3.58518e-05
3.58895e-05
3.59363e-05
3.60257e-05
3.6128e-05
3.45302e-05
3.37746e-05
3.23071e-05
3.6059e-05
4.02681e-05
3.98253e-05
3.78591e-05
3.6557e-05
3.60142e-05
3.58427e-05
3.58008e-05
3.5748e-05
3.5766e-05
3.57803e-05
3.57975e-05
3.58187e-05
3.58484e-05
3.58859e-05
3.59577e-05
3.60454e-05
3.42544e-05
3.34663e-05
3.07064e-05
3.04186e-05
3.24797e-05
3.41742e-05
3.50766e-05
3.54979e-05
3.56758e-05
3.57421e-05
3.57652e-05
3.57374e-05
3.57537e-05
3.5766e-05
3.57807e-05
3.57985e-05
3.58218e-05
3.5851e-05
3.59042e-05
3.59703e-05
3.43987e-05
3.29608e-05
2.90413e-05
2.85841e-05
3.09613e-05
3.32905e-05
3.46985e-05
3.53673e-05
3.56336e-05
3.57248e-05
3.57535e-05
3.57304e-05
3.57446e-05
3.57547e-05
3.57668e-05
3.57815e-05
3.57999e-05
3.5823e-05
3.58621e-05
3.5947e-05
3.46369e-05
3.41091e-05
3.04777e-05
2.96005e-05
3.14575e-05
3.34857e-05
3.47657e-05
3.53864e-05
3.56356e-05
3.57209e-05
3.57474e-05
3.57255e-05
3.57381e-05
3.57465e-05
3.57568e-05
3.57695e-05
3.57844e-05
3.58029e-05
3.58305e-05
3.59023e-05
3.39622e-05
3.16385e-05
2.82355e-05
2.87423e-05
3.13118e-05
3.3519e-05
3.48069e-05
3.54074e-05
3.5642e-05
3.57204e-05
3.57439e-05
3.57212e-05
3.57321e-05
3.5739e-05
3.57478e-05
3.57588e-05
3.57709e-05
3.57833e-05
3.57984e-05
3.57841e-05
3.22225e-05
2.62038e-05
2.41397e-05
2.67355e-05
3.05846e-05
3.33852e-05
3.48345e-05
3.54413e-05
3.56569e-05
3.57232e-05
3.57415e-05
3.57184e-05
3.57271e-05
3.57327e-05
3.57404e-05
3.57502e-05
3.5761e-05
3.57715e-05
3.57833e-05
3.57904e-05
3.54702e-05
3.51542e-05
3.51224e-05
3.52892e-05
3.54677e-05
3.55874e-05
3.56758e-05
3.57229e-05
3.57401e-05
3.57437e-05
3.57439e-05
3.57141e-05
3.57219e-05
3.57265e-05
3.57333e-05
3.57421e-05
3.57516e-05
3.57604e-05
3.57698e-05
3.57789e-05
3.57752e-05
3.57656e-05
3.57626e-05
3.57688e-05
3.57717e-05
3.57677e-05
3.57607e-05
3.57535e-05
3.57473e-05
3.57429e-05
3.57405e-05
3.57099e-05
3.5717e-05
3.57208e-05
3.5727e-05
3.5735e-05
3.57436e-05
3.57514e-05
3.57588e-05
3.57645e-05
3.57692e-05
3.57683e-05
3.5768e-05
3.57707e-05
3.57699e-05
3.57651e-05
3.57578e-05
3.57503e-05
3.57439e-05
3.57394e-05
3.57367e-05
3.57055e-05
3.5712e-05
3.57153e-05
3.57209e-05
3.57284e-05
3.57363e-05
3.57432e-05
3.57499e-05
3.57554e-05
3.57597e-05
3.57601e-05
3.57598e-05
3.57608e-05
3.57596e-05
3.57559e-05
3.57501e-05
3.57441e-05
3.57388e-05
3.57349e-05
3.57324e-05
3.57013e-05
3.57074e-05
3.57102e-05
3.57153e-05
3.57223e-05
3.57296e-05
3.57358e-05
3.57415e-05
3.57459e-05
3.57498e-05
3.57508e-05
3.57516e-05
3.5753e-05
3.57522e-05
3.5749e-05
3.57443e-05
3.57391e-05
3.57345e-05
3.57309e-05
3.57284e-05
3.5697e-05
3.57028e-05
3.57052e-05
3.571e-05
3.57166e-05
3.57234e-05
3.57292e-05
3.57344e-05
3.57385e-05
3.57422e-05
3.57436e-05
3.57444e-05
3.57451e-05
3.57442e-05
3.57417e-05
3.57379e-05
3.57337e-05
3.57298e-05
3.57265e-05
3.57242e-05
3.56929e-05
3.56985e-05
3.57006e-05
3.5705e-05
3.57113e-05
3.57177e-05
3.5723e-05
3.57277e-05
3.57313e-05
3.57346e-05
3.57363e-05
3.57375e-05
3.57386e-05
3.5738e-05
3.5736e-05
3.57327e-05
3.57291e-05
3.57256e-05
3.57226e-05
3.57203e-05
3.56889e-05
3.56943e-05
3.56963e-05
3.57004e-05
3.57064e-05
3.57125e-05
3.57175e-05
3.57218e-05
3.57251e-05
3.57282e-05
3.573e-05
3.57312e-05
3.57321e-05
3.57316e-05
3.573e-05
3.57274e-05
3.57244e-05
3.57213e-05
3.57186e-05
3.57164e-05
3.56852e-05
3.56905e-05
3.56922e-05
3.56962e-05
3.5702e-05
3.57077e-05
3.57124e-05
3.57163e-05
3.57193e-05
3.57222e-05
3.5724e-05
3.57255e-05
3.57265e-05
3.57263e-05
3.5725e-05
3.57229e-05
3.57202e-05
3.57175e-05
3.57149e-05
3.57128e-05
3.56817e-05
3.56868e-05
3.56884e-05
3.56923e-05
3.56978e-05
3.57034e-05
3.57077e-05
3.57114e-05
3.57142e-05
3.57169e-05
3.57187e-05
3.57202e-05
3.57211e-05
3.57211e-05
3.57201e-05
3.57184e-05
3.57161e-05
3.57137e-05
3.57114e-05
3.57093e-05
3.56784e-05
3.56835e-05
3.5685e-05
3.56887e-05
3.56941e-05
3.56994e-05
3.57035e-05
3.57069e-05
3.57095e-05
3.5712e-05
3.57138e-05
3.57154e-05
3.57164e-05
3.57166e-05
3.57159e-05
3.57145e-05
3.57125e-05
3.57103e-05
3.57081e-05
3.57061e-05
3.56754e-05
3.56804e-05
3.56818e-05
3.56854e-05
3.56907e-05
3.56958e-05
3.56997e-05
3.57029e-05
3.57053e-05
3.57076e-05
3.57094e-05
3.5711e-05
3.57121e-05
3.57124e-05
3.5712e-05
3.57108e-05
3.57091e-05
3.57072e-05
3.57051e-05
3.57031e-05
3.56726e-05
3.56775e-05
3.56789e-05
3.56824e-05
3.56875e-05
3.56925e-05
3.56962e-05
3.56992e-05
3.57014e-05
3.57037e-05
3.57055e-05
3.57071e-05
3.57083e-05
3.57087e-05
3.57085e-05
3.57076e-05
3.57061e-05
3.57043e-05
3.57023e-05
3.57004e-05
3.56701e-05
3.5675e-05
3.56763e-05
3.56798e-05
3.56848e-05
3.56897e-05
3.56932e-05
3.5696e-05
3.5698e-05
3.57002e-05
3.5702e-05
3.57036e-05
3.57048e-05
3.57054e-05
3.57054e-05
3.57047e-05
3.57035e-05
3.57019e-05
3.56999e-05
3.5698e-05
3.56677e-05
3.56726e-05
3.56739e-05
3.56773e-05
3.56823e-05
3.5687e-05
3.56904e-05
3.5693e-05
3.56949e-05
3.5697e-05
3.56987e-05
3.57005e-05
3.57017e-05
3.57024e-05
3.57026e-05
3.57021e-05
3.5701e-05
3.56995e-05
3.56976e-05
3.56957e-05
3.56657e-05
3.56706e-05
3.5672e-05
3.56753e-05
3.56802e-05
3.56848e-05
3.5688e-05
3.56905e-05
3.56923e-05
3.56943e-05
3.56961e-05
3.56979e-05
3.56992e-05
3.57e-05
3.57003e-05
3.57e-05
3.56991e-05
3.56978e-05
3.56958e-05
3.56939e-05
3.56637e-05
3.56686e-05
3.56699e-05
3.56733e-05
3.56781e-05
3.56826e-05
3.56857e-05
3.5688e-05
3.56897e-05
3.56917e-05
3.56935e-05
3.56953e-05
3.56967e-05
3.56976e-05
3.56981e-05
3.5698e-05
3.56972e-05
3.56959e-05
3.5694e-05
3.56919e-05
3.56623e-05
3.56672e-05
3.56686e-05
3.56719e-05
3.56767e-05
3.56811e-05
3.56841e-05
3.56863e-05
3.56878e-05
3.56898e-05
3.56916e-05
3.56935e-05
3.5695e-05
3.5696e-05
3.56967e-05
3.56967e-05
3.56961e-05
3.56949e-05
3.56928e-05
3.56907e-05
3.56605e-05
3.56654e-05
3.56669e-05
3.56702e-05
3.56749e-05
3.56794e-05
3.56822e-05
3.56843e-05
3.56857e-05
3.56877e-05
3.56896e-05
3.56915e-05
3.56931e-05
3.56942e-05
3.5695e-05
3.56952e-05
3.56946e-05
3.56935e-05
3.56914e-05
3.56891e-05
3.56597e-05
3.56646e-05
3.56662e-05
3.56695e-05
3.56742e-05
3.56785e-05
3.56812e-05
3.56832e-05
3.56845e-05
3.56865e-05
3.56884e-05
3.56905e-05
3.56921e-05
3.56934e-05
3.56944e-05
3.56948e-05
3.56943e-05
3.56932e-05
3.5691e-05
3.56885e-05
3.56581e-05
3.5663e-05
3.56647e-05
3.5668e-05
3.56727e-05
3.5677e-05
3.56795e-05
3.56814e-05
3.56827e-05
3.56847e-05
3.56867e-05
3.56889e-05
3.56906e-05
3.56919e-05
3.56931e-05
3.56937e-05
3.56934e-05
3.56923e-05
3.56898e-05
3.56871e-05
3.5658e-05
3.56629e-05
3.56647e-05
3.5668e-05
3.56726e-05
3.56768e-05
3.56792e-05
3.5681e-05
3.56821e-05
3.56843e-05
3.56863e-05
3.56886e-05
3.56904e-05
3.56918e-05
3.56933e-05
3.56941e-05
3.56939e-05
3.56928e-05
3.56902e-05
3.56872e-05
3.56567e-05
3.56617e-05
3.56637e-05
3.56671e-05
3.56716e-05
3.56758e-05
3.56781e-05
3.56797e-05
3.56808e-05
3.5683e-05
3.56852e-05
3.56877e-05
3.56894e-05
3.5691e-05
3.56927e-05
3.56936e-05
3.56936e-05
3.56925e-05
3.56896e-05
3.56863e-05
3.56842e-05
3.56949e-05
3.569e-05
3.56926e-05
3.57055e-05
3.57031e-05
3.57042e-05
3.57163e-05
3.57093e-05
3.57213e-05
3.57137e-05
3.57264e-05
3.57176e-05
3.57289e-05
3.57322e-05
3.57206e-05
3.57294e-05
3.57198e-05
3.5716e-05
3.57214e-05
2.20118e-05
1.96219e-05
1.9066e-05
2.03481e-05
2.30017e-05
2.63414e-05
2.97041e-05
3.27072e-05
3.52053e-05
3.71874e-05
3.86732e-05
3.96459e-05
4.00724e-05
3.99789e-05
3.94351e-05
3.84136e-05
3.676e-05
3.42553e-05
3.08118e-05
2.67464e-05
2.28136e-05
2.66131e-05
3.10672e-05
3.50998e-05
3.81083e-05
4.006e-05
4.12553e-05
4.19781e-05
4.25038e-05
4.33602e-05
4.48079e-05
4.60365e-05
4.57614e-05
4.34795e-05
3.96162e-05
3.48916e-05
2.97705e-05
2.51331e-05
2.20774e-05
2.14042e-05
3.29841e-05
3.59645e-05
3.81228e-05
3.95159e-05
4.03449e-05
4.0773e-05
4.09818e-05
4.11366e-05
4.26866e-05
5.0221e-05
6.45268e-05
7.77271e-05
8.07115e-05
7.1956e-05
5.7508e-05
4.35469e-05
3.33165e-05
2.8256e-05
2.77737e-05
3.00754e-05
3.67034e-05
3.7816e-05
3.85386e-05
3.89121e-05
3.9083e-05
3.91894e-05
3.93199e-05
3.97276e-05
4.78568e-05
8.30569e-05
0.000140918
0.000188028
0.00019552
0.000164028
0.000119476
7.98595e-05
5.37469e-05
4.07011e-05
3.62645e-05
3.59451e-05
3.88242e-05
3.83978e-05
3.83075e-05
3.83134e-05
3.83697e-05
3.84533e-05
3.85949e-05
3.94553e-05
6.17119e-05
0.000147428
0.000268734
0.00035959
0.000378903
0.00033298
0.000246883
0.000159328
9.67465e-05
6.23185e-05
4.68962e-05
4.1017e-05
3.87257e-05
3.804e-05
3.78395e-05
3.77978e-05
3.78316e-05
3.79082e-05
3.80539e-05
3.92719e-05
7.29913e-05
0.000192069
0.000341628
0.00045443
0.00047122
0.000399744
0.000285282
0.000177506
0.00010434
6.54654e-05
4.8158e-05
4.13474e-05
3.89426e-05
3.78706e-05
3.7566e-05
3.75146e-05
3.7556e-05
3.76333e-05
3.77683e-05
3.91618e-05
7.50943e-05
0.000184901
0.000322437
0.000502185
0.000638807
0.000591554
0.000417832
0.000245941
0.000134422
7.75564e-05
5.26034e-05
4.27056e-05
3.8054e-05
3.74646e-05
3.73249e-05
3.73158e-05
3.73552e-05
3.74201e-05
3.75226e-05
3.78912e-05
5.05036e-05
8.89758e-05
0.000143034
0.000288064
0.000451644
0.000460971
0.000336009
0.000198467
0.00010948
6.55929e-05
4.72351e-05
4.04171e-05
3.73487e-05
3.71991e-05
3.71839e-05
3.72082e-05
3.72505e-05
3.73095e-05
3.73904e-05
3.75246e-05
3.80574e-05
3.82072e-05
3.93841e-05
8.69348e-05
0.000178925
0.000214085
0.000167384
0.000106151
6.6632e-05
4.79407e-05
4.06077e-05
3.81271e-05
3.71095e-05
3.71016e-05
3.71152e-05
3.71387e-05
3.71714e-05
3.72189e-05
3.72823e-05
3.73961e-05
3.7555e-05
3.61162e-05
3.45663e-05
4.209e-05
6.91724e-05
8.35902e-05
7.18321e-05
5.49032e-05
4.42469e-05
3.94904e-05
3.77836e-05
3.72694e-05
3.70445e-05
3.70609e-05
3.70783e-05
3.71002e-05
3.71275e-05
3.71662e-05
3.72142e-05
3.7307e-05
3.74168e-05
3.58443e-05
3.54263e-05
3.41521e-05
3.83651e-05
4.25103e-05
4.16087e-05
3.93217e-05
3.78878e-05
3.73035e-05
3.71202e-05
3.70748e-05
3.70232e-05
3.70398e-05
3.70539e-05
3.70711e-05
3.70926e-05
3.7123e-05
3.71614e-05
3.72356e-05
3.73298e-05
3.55349e-05
3.50324e-05
3.22396e-05
3.19862e-05
3.40342e-05
3.5626e-05
3.64384e-05
3.68085e-05
3.69623e-05
3.70185e-05
3.70379e-05
3.70114e-05
3.70264e-05
3.70385e-05
3.70532e-05
3.7071e-05
3.70947e-05
3.71244e-05
3.71792e-05
3.72508e-05
3.56935e-05
3.44218e-05
3.03668e-05
2.99533e-05
3.23811e-05
3.46825e-05
3.60402e-05
3.66714e-05
3.69173e-05
3.69996e-05
3.70249e-05
3.70034e-05
3.70165e-05
3.70263e-05
3.70383e-05
3.7053e-05
3.70715e-05
3.7095e-05
3.71349e-05
3.72269e-05
3.59687e-05
3.56799e-05
3.18687e-05
3.09698e-05
3.28572e-05
3.4862e-05
3.60987e-05
3.66861e-05
3.6917e-05
3.69943e-05
3.70178e-05
3.69979e-05
3.70093e-05
3.70175e-05
3.70277e-05
3.70402e-05
3.7055e-05
3.70736e-05
3.71016e-05
3.718e-05
3.52595e-05
3.30416e-05
2.95277e-05
3.0095e-05
3.27072e-05
3.48902e-05
3.61356e-05
3.67042e-05
3.69217e-05
3.69927e-05
3.70134e-05
3.69929e-05
3.70027e-05
3.70095e-05
3.70181e-05
3.70288e-05
3.70408e-05
3.7053e-05
3.70683e-05
3.70557e-05
3.33273e-05
2.70995e-05
2.51557e-05
2.79996e-05
3.19665e-05
3.47564e-05
3.61614e-05
3.67355e-05
3.69346e-05
3.69943e-05
3.70103e-05
3.69895e-05
3.69973e-05
3.70027e-05
3.70102e-05
3.70197e-05
3.70302e-05
3.70406e-05
3.70523e-05
3.70592e-05
3.67344e-05
3.64352e-05
3.6426e-05
3.65979e-05
3.67652e-05
3.6874e-05
3.69538e-05
3.69951e-05
3.70093e-05
3.70117e-05
3.70115e-05
3.69848e-05
3.69918e-05
3.69963e-05
3.70028e-05
3.70113e-05
3.70204e-05
3.7029e-05
3.70383e-05
3.70473e-05
3.70435e-05
3.70344e-05
3.70319e-05
3.70381e-05
3.70402e-05
3.70356e-05
3.70282e-05
3.70208e-05
3.70145e-05
3.701e-05
3.70076e-05
3.69803e-05
3.69866e-05
3.69903e-05
3.69962e-05
3.70038e-05
3.70121e-05
3.70195e-05
3.70268e-05
3.70324e-05
3.70369e-05
3.70357e-05
3.70355e-05
3.70381e-05
3.70369e-05
3.7032e-05
3.70246e-05
3.7017e-05
3.70107e-05
3.70061e-05
3.70035e-05
3.69757e-05
3.69814e-05
3.69846e-05
3.69899e-05
3.69969e-05
3.70044e-05
3.70111e-05
3.70177e-05
3.7023e-05
3.70271e-05
3.70273e-05
3.70268e-05
3.70277e-05
3.70264e-05
3.70225e-05
3.70167e-05
3.70106e-05
3.70053e-05
3.70014e-05
3.6999e-05
3.69713e-05
3.69766e-05
3.69793e-05
3.69841e-05
3.69906e-05
3.69975e-05
3.70034e-05
3.7009e-05
3.70133e-05
3.7017e-05
3.70179e-05
3.70186e-05
3.70198e-05
3.70188e-05
3.70155e-05
3.70107e-05
3.70055e-05
3.70009e-05
3.69972e-05
3.69948e-05
3.69669e-05
3.69719e-05
3.69742e-05
3.69787e-05
3.69848e-05
3.69912e-05
3.69966e-05
3.70017e-05
3.70057e-05
3.70093e-05
3.70105e-05
3.70111e-05
3.70118e-05
3.70107e-05
3.70081e-05
3.70042e-05
3.7e-05
3.6996e-05
3.69928e-05
3.69905e-05
3.69627e-05
3.69675e-05
3.69695e-05
3.69736e-05
3.69794e-05
3.69853e-05
3.69903e-05
3.69949e-05
3.69983e-05
3.70015e-05
3.7003e-05
3.70042e-05
3.70051e-05
3.70044e-05
3.70022e-05
3.6999e-05
3.69953e-05
3.69918e-05
3.69888e-05
3.69865e-05
3.69587e-05
3.69633e-05
3.69651e-05
3.6969e-05
3.69744e-05
3.698e-05
3.69847e-05
3.69888e-05
3.69921e-05
3.69951e-05
3.69967e-05
3.69978e-05
3.69985e-05
3.6998e-05
3.69962e-05
3.69936e-05
3.69905e-05
3.69874e-05
3.69847e-05
3.69825e-05
3.69549e-05
3.69594e-05
3.6961e-05
3.69647e-05
3.69699e-05
3.69751e-05
3.69795e-05
3.69832e-05
3.69862e-05
3.6989e-05
3.69907e-05
3.6992e-05
3.69929e-05
3.69926e-05
3.69912e-05
3.69889e-05
3.69862e-05
3.69835e-05
3.69809e-05
3.69788e-05
3.69514e-05
3.69558e-05
3.69572e-05
3.69607e-05
3.69657e-05
3.69707e-05
3.69748e-05
3.69783e-05
3.6981e-05
3.69836e-05
3.69853e-05
3.69867e-05
3.69875e-05
3.69873e-05
3.69863e-05
3.69844e-05
3.69821e-05
3.69797e-05
3.69773e-05
3.69753e-05
3.69481e-05
3.69524e-05
3.69538e-05
3.69571e-05
3.69619e-05
3.69667e-05
3.69705e-05
3.69737e-05
3.69762e-05
3.69787e-05
3.69804e-05
3.69819e-05
3.69828e-05
3.69828e-05
3.6982e-05
3.69805e-05
3.69785e-05
3.69763e-05
3.69741e-05
3.69721e-05
3.6945e-05
3.69493e-05
3.69506e-05
3.69538e-05
3.69585e-05
3.69631e-05
3.69667e-05
3.69697e-05
3.6972e-05
3.69743e-05
3.6976e-05
3.69775e-05
3.69784e-05
3.69786e-05
3.6978e-05
3.69768e-05
3.6975e-05
3.69731e-05
3.6971e-05
3.69691e-05
3.69423e-05
3.69465e-05
3.69477e-05
3.69508e-05
3.69554e-05
3.69598e-05
3.69632e-05
3.6966e-05
3.69682e-05
3.69704e-05
3.6972e-05
3.69736e-05
3.69746e-05
3.69749e-05
3.69745e-05
3.69735e-05
3.6972e-05
3.69702e-05
3.69682e-05
3.69664e-05
3.69398e-05
3.6944e-05
3.69451e-05
3.69482e-05
3.69526e-05
3.69569e-05
3.69601e-05
3.69628e-05
3.69648e-05
3.69669e-05
3.69685e-05
3.69701e-05
3.69711e-05
3.69716e-05
3.69714e-05
3.69706e-05
3.69693e-05
3.69677e-05
3.69658e-05
3.6964e-05
3.69374e-05
3.69416e-05
3.69428e-05
3.69457e-05
3.69501e-05
3.69543e-05
3.69573e-05
3.69598e-05
3.69617e-05
3.69637e-05
3.69653e-05
3.69669e-05
3.6968e-05
3.69686e-05
3.69686e-05
3.6968e-05
3.69668e-05
3.69654e-05
3.69635e-05
3.69617e-05
3.69355e-05
3.69397e-05
3.69408e-05
3.69438e-05
3.6948e-05
3.69521e-05
3.6955e-05
3.69574e-05
3.69591e-05
3.69611e-05
3.69627e-05
3.69643e-05
3.69655e-05
3.69662e-05
3.69663e-05
3.69659e-05
3.69649e-05
3.69635e-05
3.69617e-05
3.69599e-05
3.69335e-05
3.69377e-05
3.69388e-05
3.69418e-05
3.6946e-05
3.695e-05
3.69527e-05
3.69549e-05
3.69566e-05
3.69585e-05
3.69601e-05
3.69618e-05
3.6963e-05
3.69638e-05
3.69641e-05
3.69639e-05
3.6963e-05
3.69617e-05
3.69598e-05
3.6958e-05
3.69321e-05
3.69363e-05
3.69375e-05
3.69404e-05
3.69446e-05
3.69485e-05
3.69511e-05
3.69532e-05
3.69547e-05
3.69566e-05
3.69583e-05
3.696e-05
3.69613e-05
3.69622e-05
3.69627e-05
3.69625e-05
3.69618e-05
3.69606e-05
3.69587e-05
3.69567e-05
3.69304e-05
3.69346e-05
3.69359e-05
3.69388e-05
3.69429e-05
3.69467e-05
3.69493e-05
3.69513e-05
3.69527e-05
3.69546e-05
3.69563e-05
3.69581e-05
3.69594e-05
3.69604e-05
3.6961e-05
3.6961e-05
3.69604e-05
3.69592e-05
3.69572e-05
3.69551e-05
3.69297e-05
3.69338e-05
3.69352e-05
3.6938e-05
3.69421e-05
3.69459e-05
3.69483e-05
3.69502e-05
3.69515e-05
3.69534e-05
3.69551e-05
3.6957e-05
3.69584e-05
3.69595e-05
3.69603e-05
3.69605e-05
3.696e-05
3.69588e-05
3.69568e-05
3.69545e-05
3.69281e-05
3.69323e-05
3.69338e-05
3.69366e-05
3.69407e-05
3.69444e-05
3.69467e-05
3.69485e-05
3.69497e-05
3.69517e-05
3.69535e-05
3.69555e-05
3.69569e-05
3.69581e-05
3.69591e-05
3.69594e-05
3.6959e-05
3.69579e-05
3.69556e-05
3.69532e-05
3.6928e-05
3.69322e-05
3.69337e-05
3.69366e-05
3.69406e-05
3.69442e-05
3.69464e-05
3.69481e-05
3.69492e-05
3.69512e-05
3.6953e-05
3.69552e-05
3.69567e-05
3.6958e-05
3.69592e-05
3.69597e-05
3.69594e-05
3.69583e-05
3.69559e-05
3.69532e-05
3.69269e-05
3.69311e-05
3.69328e-05
3.69357e-05
3.69396e-05
3.69433e-05
3.69453e-05
3.69469e-05
3.6948e-05
3.69501e-05
3.6952e-05
3.69543e-05
3.69558e-05
3.69572e-05
3.69586e-05
3.69592e-05
3.69591e-05
3.6958e-05
3.69553e-05
3.69524e-05
3.69552e-05
3.69647e-05
3.696e-05
3.69623e-05
3.6974e-05
3.69715e-05
3.69724e-05
3.69839e-05
3.69773e-05
3.69887e-05
3.69813e-05
3.69934e-05
3.69849e-05
3.69956e-05
3.69986e-05
3.69873e-05
3.69955e-05
3.69862e-05
3.69828e-05
3.69878e-05
2.29805e-05
2.07341e-05
2.04956e-05
2.21408e-05
2.50986e-05
2.8619e-05
3.20591e-05
3.50788e-05
3.75656e-05
3.95298e-05
4.10035e-05
4.19706e-05
4.23928e-05
4.22934e-05
4.17292e-05
4.06369e-05
3.88162e-05
3.60222e-05
3.22116e-05
2.78326e-05
2.45869e-05
2.87135e-05
3.32777e-05
3.72462e-05
4.01157e-05
4.19475e-05
4.30622e-05
4.37368e-05
4.42459e-05
4.51738e-05
4.67996e-05
4.81851e-05
4.78917e-05
4.53882e-05
4.11772e-05
3.60702e-05
3.0634e-05
2.5888e-05
2.29987e-05
2.27124e-05
3.48682e-05
3.77637e-05
3.98217e-05
4.11297e-05
4.18931e-05
4.22785e-05
4.24693e-05
4.26259e-05
4.43392e-05
5.27858e-05
6.87369e-05
8.32183e-05