/*--------------------------------*- C++ -*----------------------------------*\
| =========                 |                                                 |
| \\      /  F ield         | OpenFOAM: The Open Source CFD Toolbox           |
|  \\    /   O peration     | Version:  2.4.0                                 |
|   \\  /    A nd           | Web:      www.OpenFOAM.org                      |
|    \\/     M anipulation  |                                                 |
\*---------------------------------------------------------------------------*/
FoamFile
{
    version     2.0;
    format      ascii;
    class       volScalarField;
    location    "80";
    object      k;
}
// * * * * * * * * * * * * * * * * * * * * * * * * * * * * * * * * * * * * * //

dimensions      [0 2 -2 0 0 0 0];

internalField   nonuniform List<scalar> 
283312
(
3.11131e-05
2.76018e-05
2.53619e-05
2.49434e-05
2.63335e-05
2.90819e-05
3.25187e-05
3.60235e-05
3.91936e-05
4.17965e-05
4.37128e-05
4.48995e-05
4.53805e-05
4.52748e-05
4.4773e-05
4.39968e-05
4.29244e-05
4.1352e-05
3.89777e-05
3.56597e-05
2.49484e-05
2.77725e-05
3.20836e-05
3.67723e-05
4.08853e-05
4.39663e-05
4.60356e-05
4.7314e-05
4.79848e-05
4.83477e-05
4.88645e-05
4.94712e-05
4.92794e-05
4.74601e-05
4.40279e-05
3.98033e-05
3.51009e-05
3.04401e-05
2.66858e-05
2.47577e-05
3.55093e-05
3.88447e-05
4.18147e-05
4.40022e-05
4.54134e-05
4.61942e-05
4.65676e-05
4.67462e-05
4.73438e-05
5.14546e-05
6.24207e-05
7.70989e-05
8.6753e-05
8.53729e-05
7.49196e-05
6.11371e-05
4.78003e-05
3.8145e-05
3.35109e-05
3.32792e-05
4.20282e-05
4.2957e-05
4.38663e-05
4.44282e-05
4.46944e-05
4.48178e-05
4.49271e-05
4.51921e-05
4.9444e-05
7.2263e-05
0.000121526
0.000178405
0.000211035
0.000202904
0.000167858
0.000123851
8.56207e-05
6.01316e-05
4.71588e-05
4.2623e-05
4.76236e-05
4.52851e-05
4.44242e-05
4.4118e-05
4.40364e-05
4.40533e-05
4.4147e-05
4.47112e-05
5.86198e-05
0.000119768
0.000231247
0.00034771
0.000413616
0.000409098
0.000344387
0.000248943
0.000161515
0.000101952
6.93531e-05
5.4147e-05
4.78402e-05
4.49284e-05
4.38873e-05
4.3543e-05
4.34622e-05
4.3487e-05
4.35928e-05
4.45223e-05
7.08616e-05
0.000165465
0.000317351
0.000473649
0.00055478
0.000529936
0.000426267
0.000295384
0.000184668
0.000112758
7.39959e-05
5.57389e-05
4.87992e-05
4.49109e-05
4.36139e-05
4.32326e-05
4.31626e-05
4.31948e-05
4.32954e-05
4.43517e-05
7.45471e-05
0.000163172
0.000302911
0.000505553
0.000700846
0.000739116
0.000606414
0.000411199
0.000246629
0.000141513
8.55155e-05
5.95749e-05
4.62575e-05
4.384e-05
4.31333e-05
4.29566e-05
4.29414e-05
4.29802e-05
4.30594e-05
4.33702e-05
5.46268e-05
8.46281e-05
0.000140874
0.000290789
0.000506689
0.000609622
0.000529702
0.0003626
0.000214313
0.000121046
7.394e-05
5.38172e-05
4.3805e-05
4.30243e-05
4.28307e-05
4.28022e-05
4.28225e-05
4.28652e-05
4.29298e-05
4.30411e-05
4.34836e-05
4.01444e-05
3.80518e-05
8.10867e-05
0.000198892
0.000298379
0.000281021
0.000198399
0.000122071
7.62152e-05
5.48591e-05
4.6596e-05
4.2888e-05
4.27433e-05
4.27169e-05
4.27233e-05
4.27434e-05
4.27779e-05
4.28279e-05
4.29213e-05
4.30481e-05
3.76727e-05
3.14236e-05
3.69276e-05
7.44758e-05
0.000114556
0.000113401
8.77547e-05
6.42821e-05
5.10955e-05
4.54694e-05
4.34941e-05
4.26724e-05
4.26637e-05
4.26691e-05
4.26813e-05
4.26988e-05
4.27265e-05
4.2764e-05
4.28395e-05
4.29257e-05
3.68691e-05
3.10534e-05
2.84087e-05
3.61366e-05
4.84699e-05
5.192e-05
4.8971e-05
4.56018e-05
4.37338e-05
4.29856e-05
4.27436e-05
4.26277e-05
4.26363e-05
4.26435e-05
4.2653e-05
4.26658e-05
4.26866e-05
4.27156e-05
4.27753e-05
4.28471e-05
3.61318e-05
2.97097e-05
2.55492e-05
2.71648e-05
3.31395e-05
3.81661e-05
4.08402e-05
4.19869e-05
4.24231e-05
4.25726e-05
4.26185e-05
4.26109e-05
4.26208e-05
4.26275e-05
4.26354e-05
4.26455e-05
4.26608e-05
4.26825e-05
4.27255e-05
4.27788e-05
3.58539e-05
2.86059e-05
2.34825e-05
2.46964e-05
3.04306e-05
3.61136e-05
3.97496e-05
4.15404e-05
4.22673e-05
4.25184e-05
4.25939e-05
4.26016e-05
4.26107e-05
4.26162e-05
4.26223e-05
4.26299e-05
4.2641e-05
4.26571e-05
4.26875e-05
4.27583e-05
3.59026e-05
2.92326e-05
2.44444e-05
2.54489e-05
3.07669e-05
3.6208e-05
3.97685e-05
4.1542e-05
4.22629e-05
4.25109e-05
4.25852e-05
4.25959e-05
4.26038e-05
4.26083e-05
4.26132e-05
4.26192e-05
4.26274e-05
4.26394e-05
4.26597e-05
4.27213e-05
3.54497e-05
2.75951e-05
2.31652e-05
2.53739e-05
3.1205e-05
3.66081e-05
3.99949e-05
4.16392e-05
4.22949e-05
4.25167e-05
4.25821e-05
4.25928e-05
4.25986e-05
4.2602e-05
4.26058e-05
4.26104e-05
4.26163e-05
4.26233e-05
4.2633e-05
4.26353e-05
3.57557e-05
2.61107e-05
2.26705e-05
2.62354e-05
3.25207e-05
3.76833e-05
4.06086e-05
4.19094e-05
4.23906e-05
4.25433e-05
4.25858e-05
4.25918e-05
4.25947e-05
4.25971e-05
4.26e-05
4.26038e-05
4.26087e-05
4.26143e-05
4.26213e-05
4.26245e-05
4.19432e-05
4.15148e-05
4.16676e-05
4.20145e-05
4.22529e-05
4.23696e-05
4.24794e-05
4.25514e-05
4.25832e-05
4.25932e-05
4.25952e-05
4.25883e-05
4.25907e-05
4.25925e-05
4.25949e-05
4.2598e-05
4.26019e-05
4.26062e-05
4.26114e-05
4.26169e-05
4.26039e-05
4.25945e-05
4.25976e-05
4.26064e-05
4.261e-05
4.26076e-05
4.2604e-05
4.26005e-05
4.25972e-05
4.25945e-05
4.25928e-05
4.25851e-05
4.25871e-05
4.25886e-05
4.25905e-05
4.25931e-05
4.25964e-05
4.26e-05
4.26038e-05
4.26067e-05
4.26091e-05
4.26083e-05
4.26081e-05
4.26096e-05
4.26089e-05
4.26064e-05
4.26024e-05
4.25982e-05
4.25944e-05
4.25915e-05
4.25897e-05
4.25819e-05
4.25838e-05
4.2585e-05
4.25865e-05
4.25886e-05
4.25915e-05
4.25946e-05
4.2598e-05
4.26009e-05
4.2603e-05
4.26029e-05
4.26023e-05
4.26027e-05
4.26021e-05
4.26003e-05
4.25972e-05
4.25938e-05
4.25906e-05
4.25882e-05
4.25865e-05
4.25791e-05
4.25808e-05
4.25817e-05
4.25829e-05
4.25847e-05
4.25872e-05
4.25898e-05
4.25926e-05
4.25948e-05
4.25967e-05
4.25971e-05
4.25973e-05
4.25979e-05
4.25973e-05
4.25957e-05
4.25931e-05
4.25903e-05
4.25875e-05
4.25853e-05
4.25837e-05
4.25763e-05
4.25779e-05
4.25786e-05
4.25796e-05
4.25811e-05
4.25833e-05
4.25856e-05
4.25881e-05
4.25902e-05
4.25921e-05
4.25926e-05
4.25928e-05
4.2593e-05
4.25925e-05
4.25912e-05
4.25891e-05
4.25867e-05
4.25844e-05
4.25824e-05
4.2581e-05
4.25738e-05
4.25753e-05
4.25758e-05
4.25766e-05
4.25779e-05
4.25798e-05
4.25818e-05
4.2584e-05
4.25858e-05
4.25875e-05
4.25882e-05
4.25887e-05
4.25891e-05
4.25887e-05
4.25876e-05
4.25857e-05
4.25837e-05
4.25816e-05
4.25798e-05
4.25785e-05
4.25714e-05
4.25728e-05
4.25733e-05
4.25739e-05
4.2575e-05
4.25766e-05
4.25784e-05
4.25804e-05
4.25821e-05
4.25837e-05
4.25845e-05
4.25849e-05
4.25852e-05
4.25849e-05
4.2584e-05
4.25825e-05
4.25807e-05
4.25789e-05
4.25773e-05
4.2576e-05
4.25692e-05
4.25706e-05
4.25709e-05
4.25714e-05
4.25723e-05
4.25738e-05
4.25754e-05
4.25772e-05
4.25787e-05
4.25801e-05
4.2581e-05
4.25816e-05
4.25819e-05
4.25817e-05
4.25809e-05
4.25796e-05
4.25781e-05
4.25765e-05
4.2575e-05
4.25738e-05
4.25672e-05
4.25685e-05
4.25688e-05
4.25691e-05
4.25699e-05
4.25712e-05
4.25727e-05
4.25743e-05
4.25757e-05
4.25771e-05
4.25779e-05
4.25785e-05
4.25788e-05
4.25786e-05
4.2578e-05
4.25769e-05
4.25756e-05
4.25742e-05
4.25729e-05
4.25718e-05
4.25653e-05
4.25666e-05
4.25668e-05
4.25671e-05
4.25678e-05
4.25689e-05
4.25703e-05
4.25717e-05
4.2573e-05
4.25743e-05
4.25751e-05
4.25757e-05
4.25761e-05
4.2576e-05
4.25755e-05
4.25746e-05
4.25734e-05
4.25722e-05
4.25709e-05
4.25699e-05
4.25636e-05
4.25649e-05
4.25651e-05
4.25653e-05
4.25659e-05
4.25669e-05
4.25681e-05
4.25694e-05
4.25706e-05
4.25718e-05
4.25726e-05
4.25733e-05
4.25736e-05
4.25736e-05
4.25732e-05
4.25724e-05
4.25714e-05
4.25703e-05
4.25692e-05
4.25682e-05
4.25621e-05
4.25634e-05
4.25635e-05
4.25636e-05
4.25642e-05
4.25651e-05
4.25662e-05
4.25674e-05
4.25685e-05
4.25696e-05
4.25704e-05
4.25711e-05
4.25715e-05
4.25715e-05
4.25712e-05
4.25705e-05
4.25696e-05
4.25686e-05
4.25676e-05
4.25666e-05
4.25608e-05
4.2562e-05
4.25621e-05
4.25622e-05
4.25627e-05
4.25635e-05
4.25645e-05
4.25656e-05
4.25667e-05
4.25677e-05
4.25685e-05
4.25691e-05
4.25695e-05
4.25696e-05
4.25694e-05
4.25688e-05
4.2568e-05
4.25671e-05
4.25661e-05
4.25653e-05
4.25595e-05
4.25608e-05
4.25609e-05
4.25609e-05
4.25613e-05
4.25621e-05
4.2563e-05
4.25641e-05
4.2565e-05
4.2566e-05
4.25668e-05
4.25674e-05
4.25678e-05
4.25679e-05
4.25677e-05
4.25673e-05
4.25665e-05
4.25657e-05
4.25648e-05
4.2564e-05
4.25585e-05
4.25598e-05
4.25599e-05
4.25598e-05
4.25602e-05
4.25609e-05
4.25617e-05
4.25627e-05
4.25636e-05
4.25646e-05
4.25653e-05
4.25659e-05
4.25663e-05
4.25665e-05
4.25664e-05
4.2566e-05
4.25653e-05
4.25646e-05
4.25637e-05
4.2563e-05
4.25575e-05
4.25588e-05
4.25589e-05
4.25588e-05
4.25591e-05
4.25598e-05
4.25606e-05
4.25615e-05
4.25624e-05
4.25633e-05
4.2564e-05
4.25646e-05
4.2565e-05
4.25652e-05
4.25652e-05
4.25648e-05
4.25642e-05
4.25635e-05
4.25627e-05
4.2562e-05
4.25568e-05
4.25581e-05
4.25581e-05
4.2558e-05
4.25583e-05
4.2559e-05
4.25597e-05
4.25606e-05
4.25614e-05
4.25622e-05
4.25629e-05
4.25636e-05
4.2564e-05
4.25642e-05
4.25642e-05
4.25639e-05
4.25634e-05
4.25627e-05
4.2562e-05
4.25613e-05
4.25561e-05
4.25574e-05
4.25574e-05
4.25573e-05
4.25575e-05
4.25582e-05
4.25588e-05
4.25597e-05
4.25605e-05
4.25613e-05
4.2562e-05
4.25626e-05
4.2563e-05
4.25633e-05
4.25633e-05
4.2563e-05
4.25625e-05
4.25619e-05
4.25612e-05
4.25605e-05
4.25556e-05
4.25569e-05
4.25569e-05
4.25568e-05
4.2557e-05
4.25576e-05
4.25583e-05
4.25591e-05
4.25598e-05
4.25606e-05
4.25613e-05
4.25619e-05
4.25623e-05
4.25626e-05
4.25626e-05
4.25624e-05
4.2562e-05
4.25614e-05
4.25607e-05
4.25601e-05
4.25551e-05
4.25564e-05
4.25564e-05
4.25562e-05
4.25565e-05
4.2557e-05
4.25577e-05
4.25585e-05
4.25592e-05
4.25599e-05
4.25606e-05
4.25612e-05
4.25616e-05
4.25619e-05
4.2562e-05
4.25618e-05
4.25614e-05
4.25609e-05
4.25602e-05
4.25595e-05
4.25549e-05
4.25562e-05
4.25562e-05
4.2556e-05
4.25562e-05
4.25568e-05
4.25574e-05
4.25581e-05
4.25588e-05
4.25596e-05
4.25602e-05
4.25608e-05
4.25613e-05
4.25616e-05
4.25617e-05
4.25615e-05
4.25612e-05
4.25607e-05
4.256e-05
4.25594e-05
4.25547e-05
4.2556e-05
4.2556e-05
4.25558e-05
4.2556e-05
4.25566e-05
4.25571e-05
4.25579e-05
4.25586e-05
4.25593e-05
4.256e-05
4.25606e-05
4.2561e-05
4.25614e-05
4.25615e-05
4.25613e-05
4.2561e-05
4.25605e-05
4.25598e-05
4.25592e-05
4.25845e-05
4.25912e-05
4.25852e-05
4.2584e-05
4.25918e-05
4.25864e-05
4.25857e-05
4.25959e-05
4.25892e-05
4.25989e-05
4.25909e-05
4.26011e-05
4.25922e-05
4.26018e-05
4.26041e-05
4.25924e-05
4.25995e-05
4.25907e-05
4.25884e-05
4.25955e-05
3.13858e-05
2.79317e-05
2.59258e-05
2.58296e-05
2.75306e-05
3.05123e-05
3.40557e-05
3.75788e-05
4.07097e-05
4.32323e-05
4.50374e-05
4.60958e-05
4.64512e-05
4.62467e-05
4.5688e-05
4.48883e-05
4.37881e-05
4.21321e-05
3.95917e-05
3.60716e-05
2.57536e-05
2.89651e-05
3.34886e-05
3.81929e-05
4.21896e-05
4.51127e-05
4.70595e-05
4.82493e-05
4.88392e-05
4.91102e-05
4.95386e-05
5.00588e-05
4.97502e-05
4.77742e-05
4.4175e-05
3.97874e-05
3.49576e-05
3.02813e-05
2.66932e-05
2.51124e-05
3.66028e-05
3.99538e-05
4.28547e-05
4.49494e-05
4.62754e-05
4.699e-05
4.73298e-05
4.74938e-05
4.80489e-05
5.21836e-05
6.33924e-05
7.83097e-05
8.78258e-05
8.59294e-05
7.49904e-05
6.09113e-05
4.75961e-05
3.82485e-05
3.40417e-05
3.41676e-05
4.28999e-05
4.38396e-05
4.47048e-05
4.52189e-05
4.54549e-05
4.55685e-05
4.56783e-05
4.59433e-05
5.0094e-05
7.32458e-05
0.000123611
0.00018128
0.000213177
0.000203216
0.000166927
0.000122396
8.44195e-05
5.9634e-05
4.73723e-05
4.32859e-05
4.82184e-05
4.59758e-05
4.51467e-05
4.48514e-05
4.47761e-05
4.47971e-05
4.48957e-05
4.54513e-05
5.91605e-05
0.000121401
0.000235649
0.000354183
0.000419631
0.000412885
0.000344462
0.000246605
0.00015898
0.000100479
6.89573e-05
5.44023e-05
4.83356e-05
4.55728e-05
4.45938e-05
4.42743e-05
4.4205e-05
4.42353e-05
4.43451e-05
4.52572e-05
7.13973e-05
0.00016803
0.00032454
0.000483973
0.000563095
0.00053383
0.000425351
0.000291933
0.000181444
0.000110894
7.3342e-05
5.58254e-05
4.91321e-05
4.55051e-05
4.43103e-05
4.39657e-05
4.39084e-05
4.39451e-05
4.40483e-05
4.50853e-05
7.51831e-05
0.000166172
0.000312024
0.000521474
0.000715083
0.000742108
0.000600082
0.000402322
0.000239741
0.000137579
8.38379e-05
5.92207e-05
4.67258e-05
4.44982e-05
4.3856e-05
4.36995e-05
4.36908e-05
4.37322e-05
4.38132e-05
4.41221e-05
5.53534e-05
8.64221e-05
0.0001465
0.00030325
0.00051894
0.000612709
0.000523365
0.00035373
0.000207658
0.000117506
7.26441e-05
5.37292e-05
4.44576e-05
4.3747e-05
4.35744e-05
4.35519e-05
4.3574e-05
4.36178e-05
4.36831e-05
4.37962e-05
4.42371e-05
4.07251e-05
3.89275e-05
8.44004e-05
0.000204756
0.000300061
0.000277254
0.000193462
0.000118777
7.48374e-05
5.46988e-05
4.70142e-05
4.36188e-05
4.34889e-05
4.34665e-05
4.34743e-05
4.34951e-05
4.35304e-05
4.35811e-05
4.36761e-05
4.38045e-05
3.81599e-05
3.18594e-05
3.79477e-05
7.659e-05
0.000115285
0.000112309
8.64791e-05
6.37358e-05
5.12324e-05
4.59842e-05
4.41673e-05
4.34217e-05
4.34143e-05
4.34201e-05
4.34327e-05
4.34505e-05
4.34788e-05
4.35166e-05
4.35935e-05
4.36802e-05
3.73319e-05
3.15346e-05
2.90057e-05
3.70504e-05
4.9169e-05
5.22822e-05
4.93404e-05
4.61336e-05
4.43921e-05
4.37045e-05
4.34847e-05
4.33794e-05
4.33873e-05
4.33945e-05
4.34042e-05
4.34174e-05
4.34386e-05
4.3468e-05
4.35287e-05
4.36009e-05
3.65542e-05
3.01384e-05
2.6026e-05
2.78219e-05
3.39231e-05
3.89679e-05
4.16311e-05
4.2763e-05
4.31865e-05
4.33281e-05
4.33704e-05
4.33629e-05
4.33719e-05
4.33785e-05
4.33866e-05
4.33969e-05
4.34125e-05
4.34344e-05
4.3478e-05
4.35318e-05
3.62734e-05
2.89701e-05
2.38656e-05
2.53003e-05
3.12492e-05
3.70018e-05
4.06097e-05
4.23515e-05
4.3044e-05
4.32781e-05
4.3347e-05
4.33535e-05
4.33617e-05
4.33671e-05
4.33733e-05
4.33811e-05
4.33923e-05
4.34087e-05
4.34395e-05
4.35119e-05
3.63412e-05
2.96722e-05
2.48843e-05
2.60711e-05
3.15927e-05
3.71026e-05
4.06326e-05
4.23545e-05
4.30398e-05
4.32705e-05
4.33381e-05
4.33476e-05
4.33546e-05
4.33591e-05
4.33641e-05
4.33702e-05
4.33785e-05
4.33907e-05
4.34112e-05
4.34746e-05
3.58685e-05
2.79598e-05
2.35889e-05
2.60252e-05
3.20507e-05
3.75059e-05
4.08552e-05
4.24478e-05
4.30694e-05
4.32753e-05
4.33347e-05
4.33442e-05
4.33493e-05
4.33527e-05
4.33565e-05
4.33612e-05
4.33672e-05
4.33742e-05
4.3384e-05
4.33866e-05
3.61481e-05
2.62613e-05
2.30066e-05
2.69122e-05
3.34063e-05
3.85906e-05
4.14595e-05
4.27074e-05
4.31591e-05
4.32993e-05
4.33374e-05
4.33427e-05
4.33452e-05
4.33476e-05
4.33506e-05
4.33544e-05
4.33594e-05
4.3365e-05
4.3372e-05
4.33751e-05
4.26585e-05
4.22393e-05
4.24219e-05
4.27816e-05
4.30155e-05
4.31305e-05
4.32379e-05
4.33059e-05
4.3335e-05
4.33436e-05
4.33452e-05
4.33391e-05
4.33411e-05
4.33429e-05
4.33453e-05
4.33485e-05
4.33525e-05
4.33567e-05
4.33619e-05
4.33675e-05
4.33535e-05
4.33444e-05
4.33481e-05
4.3357e-05
4.33602e-05
4.33577e-05
4.3354e-05
4.33503e-05
4.33469e-05
4.33442e-05
4.33425e-05
4.33357e-05
4.33375e-05
4.33389e-05
4.33408e-05
4.33434e-05
4.33468e-05
4.33503e-05
4.33541e-05
4.3357e-05
4.33593e-05
4.33583e-05
4.33581e-05
4.33596e-05
4.33588e-05
4.33561e-05
4.3352e-05
4.33478e-05
4.3344e-05
4.33412e-05
4.33394e-05
4.33325e-05
4.33341e-05
4.33352e-05
4.33367e-05
4.33389e-05
4.33418e-05
4.33448e-05
4.33482e-05
4.3351e-05
4.33531e-05
4.33528e-05
4.33522e-05
4.33526e-05
4.33519e-05
4.335e-05
4.33468e-05
4.33433e-05
4.33402e-05
4.33378e-05
4.33362e-05
4.33296e-05
4.3331e-05
4.33318e-05
4.33331e-05
4.33349e-05
4.33373e-05
4.33399e-05
4.33426e-05
4.33448e-05
4.33467e-05
4.3347e-05
4.33472e-05
4.33477e-05
4.33471e-05
4.33454e-05
4.33427e-05
4.33398e-05
4.33371e-05
4.33349e-05
4.33333e-05
4.33268e-05
4.3328e-05
4.33287e-05
4.33297e-05
4.33312e-05
4.33333e-05
4.33356e-05
4.33381e-05
4.33402e-05
4.3342e-05
4.33424e-05
4.33425e-05
4.33427e-05
4.33421e-05
4.33408e-05
4.33386e-05
4.33362e-05
4.33339e-05
4.33319e-05
4.33305e-05
4.33242e-05
4.33254e-05
4.33259e-05
4.33266e-05
4.33279e-05
4.33297e-05
4.33317e-05
4.33339e-05
4.33357e-05
4.33373e-05
4.3338e-05
4.33384e-05
4.33388e-05
4.33383e-05
4.33371e-05
4.33353e-05
4.33332e-05
4.33311e-05
4.33293e-05
4.3328e-05
4.33218e-05
4.33229e-05
4.33233e-05
4.33239e-05
4.33249e-05
4.33265e-05
4.33283e-05
4.33303e-05
4.33319e-05
4.33335e-05
4.33342e-05
4.33346e-05
4.33348e-05
4.33344e-05
4.33335e-05
4.3332e-05
4.33302e-05
4.33284e-05
4.33268e-05
4.33255e-05
4.33196e-05
4.33206e-05
4.33209e-05
4.33213e-05
4.33222e-05
4.33236e-05
4.33252e-05
4.33269e-05
4.33284e-05
4.33298e-05
4.33306e-05
4.33312e-05
4.33315e-05
4.33312e-05
4.33304e-05
4.33291e-05
4.33276e-05
4.33259e-05
4.33245e-05
4.33233e-05
4.33175e-05
4.33185e-05
4.33187e-05
4.3319e-05
4.33198e-05
4.3321e-05
4.33224e-05
4.3324e-05
4.33254e-05
4.33267e-05
4.33275e-05
4.33281e-05
4.33284e-05
4.33282e-05
4.33275e-05
4.33264e-05
4.3325e-05
4.33236e-05
4.33223e-05
4.33212e-05
4.33156e-05
4.33166e-05
4.33167e-05
4.3317e-05
4.33176e-05
4.33187e-05
4.332e-05
4.33214e-05
4.33226e-05
4.33239e-05
4.33247e-05
4.33253e-05
4.33256e-05
4.33255e-05
4.3325e-05
4.3324e-05
4.33228e-05
4.33216e-05
4.33203e-05
4.33193e-05
4.33139e-05
4.33149e-05
4.3315e-05
4.33151e-05
4.33157e-05
4.33166e-05
4.33178e-05
4.33191e-05
4.33202e-05
4.33214e-05
4.33222e-05
4.33228e-05
4.33231e-05
4.33231e-05
4.33226e-05
4.33218e-05
4.33208e-05
4.33196e-05
4.33185e-05
4.33176e-05
4.33124e-05
4.33133e-05
4.33134e-05
4.33134e-05
4.33139e-05
4.33148e-05
4.33158e-05
4.3317e-05
4.33181e-05
4.33192e-05
4.33199e-05
4.33206e-05
4.33209e-05
4.33209e-05
4.33206e-05
4.33199e-05
4.33189e-05
4.33179e-05
4.33169e-05
4.3316e-05
4.3311e-05
4.33119e-05
4.3312e-05
4.3312e-05
4.33124e-05
4.33132e-05
4.33141e-05
4.33152e-05
4.33162e-05
4.33172e-05
4.3318e-05
4.33186e-05
4.3319e-05
4.3319e-05
4.33187e-05
4.33181e-05
4.33173e-05
4.33164e-05
4.33155e-05
4.33146e-05
4.33097e-05
4.33107e-05
4.33107e-05
4.33107e-05
4.3311e-05
4.33117e-05
4.33126e-05
4.33136e-05
4.33145e-05
4.33155e-05
4.33162e-05
4.33168e-05
4.33172e-05
4.33173e-05
4.33171e-05
4.33166e-05
4.33159e-05
4.3315e-05
4.33141e-05
4.33133e-05
4.33087e-05
4.33096e-05
4.33096e-05
4.33096e-05
4.33099e-05
4.33105e-05
4.33113e-05
4.33122e-05
4.33131e-05
4.3314e-05
4.33147e-05
4.33154e-05
4.33157e-05
4.33159e-05
4.33157e-05
4.33153e-05
4.33146e-05
4.33139e-05
4.3313e-05
4.33123e-05
4.33077e-05
4.33087e-05
4.33086e-05
4.33085e-05
4.33088e-05
4.33094e-05
4.33101e-05
4.3311e-05
4.33118e-05
4.33127e-05
4.33134e-05
4.3314e-05
4.33144e-05
4.33146e-05
4.33145e-05
4.33141e-05
4.33135e-05
4.33128e-05
4.3312e-05
4.33113e-05
4.3307e-05
4.33079e-05
4.33079e-05
4.33077e-05
4.3308e-05
4.33085e-05
4.33092e-05
4.33101e-05
4.33108e-05
4.33117e-05
4.33123e-05
4.33129e-05
4.33133e-05
4.33135e-05
4.33135e-05
4.33131e-05
4.33126e-05
4.3312e-05
4.33112e-05
4.33105e-05
4.33063e-05
4.33072e-05
4.33071e-05
4.3307e-05
4.33072e-05
4.33077e-05
4.33083e-05
4.33092e-05
4.33099e-05
4.33107e-05
4.33113e-05
4.3312e-05
4.33123e-05
4.33126e-05
4.33126e-05
4.33123e-05
4.33118e-05
4.33112e-05
4.33105e-05
4.33098e-05
4.33058e-05
4.33067e-05
4.33066e-05
4.33065e-05
4.33067e-05
4.33071e-05
4.33077e-05
4.33085e-05
4.33092e-05
4.331e-05
4.33106e-05
4.33112e-05
4.33116e-05
4.33119e-05
4.33119e-05
4.33116e-05
4.33112e-05
4.33106e-05
4.331e-05
4.33093e-05
4.33053e-05
4.33062e-05
4.33061e-05
4.33059e-05
4.33061e-05
4.33066e-05
4.33071e-05
4.33079e-05
4.33086e-05
4.33093e-05
4.33099e-05
4.33106e-05
4.3311e-05
4.33112e-05
4.33113e-05
4.3311e-05
4.33106e-05
4.33101e-05
4.33094e-05
4.33088e-05
4.33051e-05
4.3306e-05
4.33059e-05
4.33056e-05
4.33058e-05
4.33063e-05
4.33068e-05
4.33076e-05
4.33082e-05
4.3309e-05
4.33096e-05
4.33102e-05
4.33106e-05
4.33109e-05
4.3311e-05
4.33107e-05
4.33104e-05
4.33099e-05
4.33092e-05
4.33086e-05
4.33049e-05
4.33058e-05
4.33057e-05
4.33055e-05
4.33056e-05
4.33061e-05
4.33066e-05
4.33073e-05
4.3308e-05
4.33087e-05
4.33093e-05
4.33099e-05
4.33103e-05
4.33107e-05
4.33108e-05
4.33105e-05
4.33102e-05
4.33097e-05
4.3309e-05
4.33084e-05
4.3334e-05
4.33399e-05
4.33343e-05
4.33333e-05
4.33404e-05
4.33353e-05
4.33347e-05
4.33443e-05
4.33379e-05
4.33471e-05
4.33395e-05
4.33492e-05
4.33408e-05
4.33499e-05
4.33519e-05
4.33408e-05
4.33474e-05
4.33391e-05
4.33371e-05
4.33436e-05
3.16866e-05
2.83304e-05
2.65875e-05
2.68196e-05
2.88188e-05
3.19958e-05
3.5621e-05
3.91452e-05
4.22228e-05
4.46512e-05
4.63311e-05
4.72499e-05
4.74758e-05
4.71791e-05
4.65792e-05
4.57725e-05
4.4655e-05
4.2915e-05
4.02038e-05
3.6489e-05
2.6661e-05
3.02332e-05
3.49266e-05
3.96131e-05
4.34786e-05
4.62553e-05
4.80847e-05
4.91877e-05
4.96928e-05
4.98601e-05
5.01831e-05
5.05997e-05
5.0161e-05
4.80212e-05
4.4256e-05
3.9718e-05
3.47846e-05
3.0134e-05
2.67611e-05
2.55645e-05
3.77122e-05
4.10704e-05
4.38995e-05
4.5902e-05
4.71441e-05
4.77967e-05
4.81061e-05
4.82569e-05
4.8757e-05
5.28763e-05
6.4265e-05
7.9339e-05
8.86368e-05
8.61942e-05
7.48413e-05
6.05436e-05
4.73336e-05
3.83558e-05
3.46038e-05
3.50855e-05
4.37805e-05
4.47313e-05
4.55539e-05
4.60232e-05
4.62327e-05
4.63383e-05
4.64496e-05
4.67139e-05
5.07191e-05
7.40889e-05
0.000125372
0.000183563
0.000214467
0.000202649
0.000165264
0.000120455
8.29671e-05
5.90476e-05
4.75725e-05
4.39572e-05
4.88061e-05
4.66744e-05
4.58846e-05
4.5604e-05
4.55368e-05
4.55628e-05
4.56665e-05
4.62096e-05
5.96004e-05
0.000122663
0.000239273
0.000359345
0.000423921
0.000414826
0.00034284
0.00024308
0.000155815
9.87331e-05
6.84564e-05
5.46226e-05
4.88318e-05
4.62331e-05
4.53213e-05
4.5028e-05
4.49707e-05
4.50064e-05
4.51202e-05
4.60082e-05
7.17522e-05
0.000170035
0.000330647
0.000492408
0.000568871
0.000535032
0.000422162
0.000286994
0.000177443
0.000108684
7.25561e-05
5.5876e-05
4.94758e-05
4.61209e-05
4.50303e-05
4.47222e-05
4.46776e-05
4.47185e-05
4.48242e-05
4.58341e-05
7.56187e-05
0.000168656
0.000320302
0.000535615
0.000725824
0.000740916
0.000590367
0.000391408
0.000231853
0.000133233
8.20273e-05
5.88447e-05
4.72164e-05
4.51812e-05
4.46029e-05
4.44662e-05
4.44638e-05
4.45076e-05
4.45903e-05
4.48959e-05
5.60198e-05
8.80561e-05
0.000151962
0.000314927
0.000528632
0.000612291
0.000514035
0.000343093
0.000200208
0.000113693
7.12911e-05
5.36514e-05
4.51348e-05
4.4494e-05
4.43419e-05
4.43251e-05
4.4349e-05
4.43937e-05
4.44599e-05
4.45746e-05
4.50116e-05
4.13134e-05
3.98373e-05
8.76038e-05
0.000209907
0.000300019
0.000271957
0.000187684
0.000115162
7.33839e-05
5.45446e-05
4.74568e-05
4.43736e-05
4.4258e-05
4.42396e-05
4.42489e-05
4.42705e-05
4.43066e-05
4.43578e-05
4.44545e-05
4.45842e-05
3.86586e-05
3.23171e-05
3.8963e-05
7.84549e-05
0.00011546
0.00011075
8.49836e-05
6.31325e-05
5.13762e-05
4.65222e-05
4.48655e-05
4.41943e-05
4.41883e-05
4.41946e-05
4.42076e-05
4.42259e-05
4.42546e-05
4.42929e-05
4.43711e-05
4.44582e-05
3.7807e-05
3.20417e-05
2.96168e-05
3.79207e-05
4.97598e-05
5.25663e-05
4.96883e-05
4.66758e-05
4.50714e-05
4.44468e-05
4.42494e-05
4.41544e-05
4.41619e-05
4.41691e-05
4.41792e-05
4.41927e-05
4.42143e-05
4.4244e-05
4.43057e-05
4.43783e-05
3.69866e-05
3.05963e-05
2.65281e-05
2.84964e-05
3.47174e-05
3.97835e-05
4.24407e-05
4.35602e-05
4.39722e-05
4.41066e-05
4.41456e-05
4.41382e-05
4.41465e-05
4.41531e-05
4.41614e-05
4.4172e-05
4.41878e-05
4.421e-05
4.42542e-05
4.43085e-05
3.67038e-05
2.93604e-05
2.4275e-05
2.59351e-05
3.20996e-05
3.79177e-05
4.14935e-05
4.31848e-05
4.3843e-05
4.40607e-05
4.41234e-05
4.41288e-05
4.41363e-05
4.41416e-05
4.4148e-05
4.41559e-05
4.41674e-05
4.41841e-05
4.42152e-05
4.42892e-05
3.67932e-05
3.01449e-05
2.53534e-05
2.67267e-05
3.24532e-05
3.80265e-05
4.1521e-05
4.31893e-05
4.3839e-05
4.4053e-05
4.41145e-05
4.41227e-05
4.41291e-05
4.41335e-05
4.41386e-05
4.41449e-05
4.41533e-05
4.41657e-05
4.41864e-05
4.42516e-05
3.62993e-05
2.83521e-05
2.40415e-05
2.67106e-05
3.29308e-05
3.84324e-05
4.17394e-05
4.32786e-05
4.38665e-05
4.4057e-05
4.41107e-05
4.4119e-05
4.41236e-05
4.4127e-05
4.41309e-05
4.41357e-05
4.41418e-05
4.41489e-05
4.41589e-05
4.41615e-05
3.65461e-05
2.64182e-05
2.33673e-05
2.76258e-05
3.43267e-05
3.95246e-05
4.23329e-05
4.35273e-05
4.39502e-05
4.40785e-05
4.41126e-05
4.41171e-05
4.41194e-05
4.41218e-05
4.41249e-05
4.41288e-05
4.41338e-05
4.41394e-05
4.41465e-05
4.41495e-05
4.33957e-05
4.29869e-05
4.31999e-05
4.35718e-05
4.38007e-05
4.39147e-05
4.40196e-05
4.40838e-05
4.41102e-05
4.41177e-05
4.41189e-05
4.41133e-05
4.41152e-05
4.4117e-05
4.41195e-05
4.41227e-05
4.41267e-05
4.4131e-05
4.41363e-05
4.41418e-05
4.41269e-05
4.4118e-05
4.41223e-05
4.41314e-05
4.41342e-05
4.41315e-05
4.41276e-05
4.41238e-05
4.41203e-05
4.41176e-05
4.4116e-05
4.411e-05
4.41115e-05
4.41129e-05
4.41149e-05
4.41175e-05
4.41209e-05
4.41244e-05
4.41282e-05
4.41311e-05
4.41333e-05
4.41321e-05
4.41319e-05
4.41333e-05
4.41324e-05
4.41296e-05
4.41254e-05
4.41211e-05
4.41173e-05
4.41145e-05
4.41128e-05
4.41067e-05
4.4108e-05
4.41091e-05
4.41107e-05
4.41129e-05
4.41158e-05
4.41188e-05
4.41222e-05
4.4125e-05
4.4127e-05
4.41266e-05
4.41259e-05
4.41262e-05
4.41254e-05
4.41234e-05
4.41201e-05
4.41166e-05
4.41135e-05
4.41111e-05
4.41096e-05
4.41037e-05
4.41048e-05
4.41057e-05
4.41069e-05
4.41088e-05
4.41112e-05
4.41138e-05
4.41165e-05
4.41186e-05
4.41205e-05
4.41206e-05
4.41208e-05
4.41213e-05
4.41205e-05
4.41188e-05
4.4116e-05
4.41131e-05
4.41104e-05
4.41082e-05
4.41067e-05
4.41009e-05
4.41018e-05
4.41025e-05
4.41035e-05
4.4105e-05
4.41071e-05
4.41094e-05
4.41119e-05
4.41139e-05
4.41157e-05
4.4116e-05
4.41161e-05
4.41162e-05
4.41156e-05
4.41141e-05
4.41119e-05
4.41095e-05
4.41072e-05
4.41052e-05
4.41038e-05
4.40982e-05
4.40991e-05
4.40996e-05
4.41004e-05
4.41017e-05
4.41035e-05
4.41054e-05
4.41076e-05
4.41093e-05
4.41109e-05
4.41115e-05
4.41119e-05
4.41122e-05
4.41117e-05
4.41105e-05
4.41086e-05
4.41064e-05
4.41044e-05
4.41026e-05
4.41013e-05
4.40958e-05
4.40966e-05
4.40969e-05
4.40975e-05
4.40986e-05
4.41002e-05
4.41019e-05
4.41039e-05
4.41055e-05
4.4107e-05
4.41077e-05
4.41081e-05
4.41082e-05
4.41078e-05
4.41068e-05
4.41052e-05
4.41034e-05
4.41016e-05
4.41e-05
4.40988e-05
4.40935e-05
4.40943e-05
4.40945e-05
4.4095e-05
4.40959e-05
4.40972e-05
4.40987e-05
4.41005e-05
4.41019e-05
4.41033e-05
4.41041e-05
4.41046e-05
4.41049e-05
4.41045e-05
4.41037e-05
4.41023e-05
4.41008e-05
4.40991e-05
4.40977e-05
4.40965e-05
4.40914e-05
4.40921e-05
4.40923e-05
4.40926e-05
4.40934e-05
4.40946e-05
4.40959e-05
4.40975e-05
4.40988e-05
4.41002e-05
4.41009e-05
4.41014e-05
4.41017e-05
4.41014e-05
4.41007e-05
4.40996e-05
4.40982e-05
4.40968e-05
4.40955e-05
4.40944e-05
4.40895e-05
4.40902e-05
4.40903e-05
4.40905e-05
4.40911e-05
4.40922e-05
4.40934e-05
4.40948e-05
4.4096e-05
4.40973e-05
4.4098e-05
4.40986e-05
4.40989e-05
4.40988e-05
4.40982e-05
4.40972e-05
4.4096e-05
4.40947e-05
4.40935e-05
4.40925e-05
4.40878e-05
4.40884e-05
4.40885e-05
4.40886e-05
4.40892e-05
4.40901e-05
4.40912e-05
4.40924e-05
4.40936e-05
4.40947e-05
4.40955e-05
4.40961e-05
4.40964e-05
4.40963e-05
4.40958e-05
4.4095e-05
4.40939e-05
4.40928e-05
4.40917e-05
4.40907e-05
4.40862e-05
4.40869e-05
4.40869e-05
4.40869e-05
4.40874e-05
4.40882e-05
4.40892e-05
4.40903e-05
4.40914e-05
4.40925e-05
4.40932e-05
4.40938e-05
4.40941e-05
4.40941e-05
4.40937e-05
4.4093e-05
4.40921e-05
4.4091e-05
4.409e-05
4.40891e-05
4.40848e-05
4.40855e-05
4.40854e-05
4.40854e-05
4.40858e-05
4.40865e-05
4.40874e-05
4.40885e-05
4.40895e-05
4.40905e-05
4.40912e-05
4.40918e-05
4.40921e-05
4.40922e-05
4.40919e-05
4.40912e-05
4.40904e-05
4.40895e-05
4.40885e-05
4.40877e-05
4.40835e-05
4.40842e-05
4.40841e-05
4.40841e-05
4.40844e-05
4.40851e-05
4.40859e-05
4.40869e-05
4.40878e-05
4.40887e-05
4.40894e-05
4.409e-05
4.40904e-05
4.40905e-05
4.40902e-05
4.40897e-05
4.40889e-05
4.40881e-05
4.40872e-05
4.40864e-05
4.40825e-05
4.40831e-05
4.40831e-05
4.4083e-05
4.40832e-05
4.40838e-05
4.40845e-05
4.40855e-05
4.40863e-05
4.40872e-05
4.40879e-05
4.40885e-05
4.40889e-05
4.4089e-05
4.40888e-05
4.40883e-05
4.40877e-05
4.40869e-05
4.40861e-05
4.40853e-05
4.40815e-05
4.40822e-05
4.40821e-05
4.40819e-05
4.40822e-05
4.40827e-05
4.40834e-05
4.40842e-05
4.4085e-05
4.40859e-05
4.40866e-05
4.40872e-05
4.40875e-05
4.40877e-05
4.40875e-05
4.40871e-05
4.40865e-05
4.40858e-05
4.4085e-05
4.40843e-05
4.40807e-05
4.40814e-05
4.40813e-05
4.40811e-05
4.40813e-05
4.40818e-05
4.40824e-05
4.40833e-05
4.4084e-05
4.40848e-05
4.40855e-05
4.40861e-05
4.40864e-05
4.40866e-05
4.40865e-05
4.40862e-05
4.40856e-05
4.4085e-05
4.40842e-05
4.40835e-05
4.408e-05
4.40807e-05
4.40805e-05
4.40804e-05
4.40805e-05
4.4081e-05
4.40815e-05
4.40823e-05
4.40831e-05
4.40839e-05
4.40845e-05
4.40851e-05
4.40854e-05
4.40856e-05
4.40856e-05
4.40853e-05
4.40848e-05
4.40842e-05
4.40834e-05
4.40828e-05
4.40795e-05
4.40802e-05
4.408e-05
4.40798e-05
4.408e-05
4.40804e-05
4.40809e-05
4.40817e-05
4.40824e-05
4.40831e-05
4.40837e-05
4.40843e-05
4.40847e-05
4.40849e-05
4.40849e-05
4.40846e-05
4.40842e-05
4.40836e-05
4.40829e-05
4.40823e-05
4.4079e-05
4.40796e-05
4.40795e-05
4.40793e-05
4.40794e-05
4.40798e-05
4.40803e-05
4.40811e-05
4.40817e-05
4.40825e-05
4.40831e-05
4.40837e-05
4.4084e-05
4.40843e-05
4.40843e-05
4.4084e-05
4.40836e-05
4.4083e-05
4.40824e-05
4.40818e-05
4.40788e-05
4.40794e-05
4.40792e-05
4.4079e-05
4.40791e-05
4.40795e-05
4.408e-05
4.40807e-05
4.40813e-05
4.40821e-05
4.40827e-05
4.40833e-05
4.40836e-05
4.40839e-05
4.4084e-05
4.40837e-05
4.40834e-05
4.40828e-05
4.40821e-05
4.40816e-05
4.40786e-05
4.40792e-05
4.4079e-05
4.40788e-05
4.40789e-05
4.40793e-05
4.40798e-05
4.40805e-05
4.40811e-05
4.40819e-05
4.40824e-05
4.4083e-05
4.40834e-05
4.40837e-05
4.40837e-05
4.40835e-05
4.40832e-05
4.40826e-05
4.4082e-05
4.40814e-05
4.41071e-05
4.41122e-05
4.4107e-05
4.41062e-05
4.41127e-05
4.41079e-05
4.41074e-05
4.41164e-05
4.41104e-05
4.41191e-05
4.41119e-05
4.41211e-05
4.41132e-05
4.41216e-05
4.41233e-05
4.41129e-05
4.41191e-05
4.41114e-05
4.41096e-05
4.41155e-05
3.20306e-05
2.88095e-05
2.73541e-05
2.79162e-05
3.01948e-05
3.35356e-05
3.72186e-05
4.07258e-05
4.37354e-05
4.60552e-05
4.75963e-05
4.83659e-05
4.84616e-05
4.80841e-05
4.74633e-05
4.66706e-05
4.55477e-05
4.37218e-05
4.08324e-05
3.6928e-05
2.76729e-05
3.1578e-05
3.64008e-05
4.1039e-05
4.47623e-05
4.73962e-05
4.91118e-05
5.013e-05
5.05469e-05
5.05982e-05
5.07984e-05
5.10947e-05
5.0515e-05
4.82087e-05
4.42844e-05
3.96102e-05
3.45974e-05
3.00121e-05
2.68999e-05
2.61197e-05
3.88463e-05
4.22013e-05
4.49544e-05
4.6864e-05
4.80233e-05
4.86181e-05
4.89002e-05
4.90394e-05
4.94715e-05
5.35362e-05
6.50436e-05
8.01941e-05