/*--------------------------------*- C++ -*----------------------------------*\
| =========                 |                                                 |
| \\      /  F ield         | OpenFOAM: The Open Source CFD Toolbox           |
|  \\    /   O peration     | Version:  2.4.0                                 |
|   \\  /    A nd           | Web:      www.OpenFOAM.org                      |
|    \\/     M anipulation  |                                                 |
\*---------------------------------------------------------------------------*/
FoamFile
{
    version     2.0;
    format      ascii;
    class       volScalarField;
    location    "80";
    object      nut;
}
// * * * * * * * * * * * * * * * * * * * * * * * * * * * * * * * * * * * * * //

dimensions      [0 2 -1 0 0 0 0];

internalField   nonuniform List<scalar> 
283312
(
4.32928e-06
3.89398e-06
3.4972e-06
3.26154e-06
3.25177e-06
3.44697e-06
3.77363e-06
4.1506e-06
4.51467e-06
4.82024e-06
5.04006e-06
5.16691e-06
5.21008e-06
5.19285e-06
5.14716e-06
5.09904e-06
5.05701e-06
5.00192e-06
4.88812e-06
4.66545e-06
2.851e-06
3.05503e-06
3.45359e-06
3.94086e-06
4.40851e-06
4.78781e-06
5.05846e-06
5.22854e-06
5.29999e-06
5.2803e-06
5.24323e-06
5.25273e-06
5.24476e-06
5.0985e-06
4.77952e-06
4.39076e-06
3.96279e-06
3.525e-06
3.13737e-06
2.88447e-06
3.86675e-06
4.18336e-06
4.52038e-06
4.7904e-06
4.97094e-06
5.07184e-06
5.11972e-06
5.13766e-06
5.10308e-06
5.24322e-06
6.17494e-06
7.91893e-06
9.62054e-06
1.0307e-05
9.78003e-06
8.49479e-06
6.78454e-06
5.16914e-06
4.12068e-06
3.75592e-06
4.74335e-06
4.77109e-06
4.85419e-06
4.91381e-06
4.94173e-06
4.95228e-06
4.95956e-06
4.97046e-06
5.03764e-06
6.5433e-06
1.12299e-05
1.82033e-05
2.42204e-05
2.62009e-05
2.42229e-05
1.945e-05
1.36896e-05
8.8914e-06
6.12298e-06
5.01429e-06
5.68483e-06
5.17522e-06
4.9809e-06
4.90645e-06
4.8791e-06
4.8716e-06
4.87491e-06
4.89994e-06
5.60554e-06
1.04333e-05
2.17893e-05
3.68591e-05
4.91629e-05
5.41506e-05
5.08294e-05
4.0314e-05
2.73904e-05
1.66639e-05
1.01188e-05
6.98901e-06
5.71659e-06
5.12502e-06
4.91355e-06
4.8412e-06
4.81911e-06
4.81516e-06
4.82072e-06
4.88506e-06
7.0031e-06
1.54883e-05
3.26682e-05
5.46749e-05
7.15287e-05
7.59756e-05
6.76595e-05
5.10468e-05
3.31466e-05
1.92732e-05
1.11075e-05
7.28291e-06
5.89297e-06
5.13663e-06
4.88593e-06
4.80825e-06
4.78765e-06
4.78497e-06
4.79039e-06
4.86359e-06
7.55957e-06
1.57246e-05
3.19637e-05
5.75079e-05
8.51087e-05
9.90315e-05
9.17755e-05
6.99179e-05
4.49863e-05
2.51791e-05
1.34019e-05
7.99087e-06
5.41835e-06
4.94834e-06
4.80985e-06
4.77219e-06
4.76399e-06
4.7644e-06
4.76903e-06
4.79388e-06
5.86374e-06
8.5789e-06
1.55949e-05
3.37095e-05
6.32564e-05
8.65965e-05
8.66882e-05
6.67206e-05
4.11708e-05
2.15353e-05
1.10937e-05
6.88125e-06
4.9565e-06
4.80213e-06
4.7613e-06
4.7518e-06
4.7508e-06
4.75268e-06
4.75663e-06
4.76438e-06
4.80074e-06
4.12125e-06
3.70327e-06
8.37177e-06
2.44856e-05
4.43032e-05
4.83246e-05
3.67445e-05
2.1657e-05
1.16275e-05
7.11692e-06
5.48293e-06
4.78392e-06
4.75242e-06
4.74461e-06
4.7429e-06
4.74309e-06
4.74464e-06
4.74759e-06
4.75392e-06
4.76321e-06
3.80847e-06
2.80883e-06
3.35308e-06
8.56001e-06
1.62867e-05
1.79172e-05
1.3681e-05
9.00644e-06
6.36533e-06
5.27392e-06
4.89597e-06
4.74453e-06
4.73987e-06
4.73859e-06
4.7383e-06
4.73854e-06
4.73966e-06
4.74174e-06
4.74672e-06
4.75291e-06
3.67562e-06
2.69163e-06
2.37403e-06
3.46829e-06
5.55009e-06
6.37216e-06
5.92495e-06
5.30685e-06
4.95049e-06
4.80422e-06
4.75541e-06
4.73699e-06
4.73622e-06
4.73579e-06
4.73554e-06
4.73551e-06
4.73612e-06
4.73756e-06
4.74131e-06
4.74613e-06
3.55634e-06
2.48176e-06
2.00688e-06
2.29502e-06
3.18929e-06
4.00001e-06
4.44602e-06
4.63427e-06
4.70316e-06
4.72578e-06
4.73223e-06
4.73455e-06
4.7343e-06
4.73405e-06
4.73378e-06
4.73358e-06
4.73381e-06
4.73468e-06
4.73714e-06
4.74073e-06
3.4879e-06
2.33087e-06
1.78528e-06
2.01132e-06
2.81489e-06
3.67325e-06
4.25649e-06
4.55254e-06
4.67395e-06
4.71585e-06
4.72819e-06
4.7333e-06
4.73317e-06
4.73297e-06
4.73263e-06
4.73228e-06
4.73222e-06
4.73269e-06
4.73419e-06
4.73923e-06
3.47575e-06
2.3558e-06
1.84338e-06
2.0591e-06
2.82811e-06
3.66814e-06
4.25079e-06
4.54969e-06
4.67235e-06
4.7145e-06
4.7269e-06
4.73258e-06
4.73243e-06
4.73225e-06
4.73188e-06
4.73144e-06
4.73119e-06
4.73134e-06
4.73212e-06
4.73685e-06
3.45504e-06
2.25955e-06
1.78708e-06
2.10976e-06
2.92298e-06
3.74524e-06
4.29348e-06
4.56779e-06
4.67827e-06
4.71568e-06
4.72658e-06
4.7324e-06
4.73202e-06
4.7318e-06
4.73139e-06
4.73087e-06
4.73049e-06
4.73031e-06
4.7304e-06
4.73313e-06
3.69194e-06
2.42025e-06
1.99526e-06
2.42556e-06
3.25246e-06
3.98529e-06
4.42251e-06
4.62236e-06
4.69718e-06
4.72102e-06
4.7276e-06
4.73246e-06
4.73177e-06
4.73151e-06
4.73106e-06
4.73051e-06
4.73008e-06
4.72984e-06
4.72976e-06
4.72946e-06
4.62167e-06
4.57223e-06
4.61346e-06
4.66848e-06
4.69545e-06
4.70334e-06
4.71437e-06
4.72304e-06
4.72732e-06
4.72883e-06
4.72919e-06
4.73222e-06
4.73155e-06
4.7313e-06
4.73085e-06
4.73026e-06
4.72979e-06
4.72949e-06
4.72935e-06
4.72931e-06
4.7269e-06
4.72622e-06
4.72742e-06
4.72851e-06
4.72878e-06
4.72874e-06
4.72884e-06
4.72901e-06
4.7291e-06
4.7291e-06
4.72904e-06
4.73204e-06
4.7314e-06
4.73117e-06
4.73071e-06
4.7301e-06
4.72961e-06
4.7293e-06
4.7291e-06
4.72894e-06
4.72881e-06
4.72871e-06
4.72871e-06
4.72867e-06
4.72859e-06
4.72866e-06
4.72876e-06
4.72885e-06
4.72889e-06
4.72888e-06
4.72884e-06
4.73192e-06
4.73131e-06
4.73109e-06
4.73062e-06
4.73e-06
4.72949e-06
4.72917e-06
4.72899e-06
4.72887e-06
4.72873e-06
4.7286e-06
4.72851e-06
4.72845e-06
4.72844e-06
4.72853e-06
4.72862e-06
4.72869e-06
4.72872e-06
4.72872e-06
4.7287e-06
4.73184e-06
4.73125e-06
4.73105e-06
4.73057e-06
4.72994e-06
4.72942e-06
4.72909e-06
4.7289e-06
4.72877e-06
4.72866e-06
4.72857e-06
4.7285e-06
4.72843e-06
4.72839e-06
4.72844e-06
4.72851e-06
4.72857e-06
4.72861e-06
4.72861e-06
4.7286e-06
4.7318e-06
4.73123e-06
4.73104e-06
4.73055e-06
4.72991e-06
4.72938e-06
4.72905e-06
4.72887e-06
4.72876e-06
4.72866e-06
4.72855e-06
4.72847e-06
4.72839e-06
4.72837e-06
4.72841e-06
4.72846e-06
4.72851e-06
4.72853e-06
4.72854e-06
4.72854e-06
4.73179e-06
4.73123e-06
4.73104e-06
4.73055e-06
4.7299e-06
4.72937e-06
4.72904e-06
4.72886e-06
4.72875e-06
4.72866e-06
4.72857e-06
4.72849e-06
4.72841e-06
4.72838e-06
4.7284e-06
4.72843e-06
4.72846e-06
4.72848e-06
4.7285e-06
4.72851e-06
4.73179e-06
4.73125e-06
4.73107e-06
4.73057e-06
4.72991e-06
4.72937e-06
4.72904e-06
4.72887e-06
4.72877e-06
4.72868e-06
4.72859e-06
4.72851e-06
4.72843e-06
4.72839e-06
4.7284e-06
4.72842e-06
4.72844e-06
4.72846e-06
4.72848e-06
4.7285e-06
4.73181e-06
4.73128e-06
4.7311e-06
4.7306e-06
4.72993e-06
4.72938e-06
4.72906e-06
4.72888e-06
4.72879e-06
4.72871e-06
4.72863e-06
4.72854e-06
4.72846e-06
4.72842e-06
4.72841e-06
4.72841e-06
4.72843e-06
4.72844e-06
4.72847e-06
4.7285e-06
4.73185e-06
4.73132e-06
4.73114e-06
4.73063e-06
4.72997e-06
4.72941e-06
4.72909e-06
4.72892e-06
4.72883e-06
4.72875e-06
4.72867e-06
4.72859e-06
4.7285e-06
4.72845e-06
4.72843e-06
4.72842e-06
4.72843e-06
4.72844e-06
4.72848e-06
4.72852e-06
4.73188e-06
4.73136e-06
4.73118e-06
4.73067e-06
4.73e-06
4.72945e-06
4.72912e-06
4.72896e-06
4.72888e-06
4.7288e-06
4.72872e-06
4.72863e-06
4.72855e-06
4.72849e-06
4.72845e-06
4.72843e-06
4.72843e-06
4.72845e-06
4.72849e-06
4.72854e-06
4.73193e-06
4.73141e-06
4.73124e-06
4.73072e-06
4.73005e-06
4.72949e-06
4.72917e-06
4.72901e-06
4.72893e-06
4.72886e-06
4.72877e-06
4.72868e-06
4.72859e-06
4.72852e-06
4.72848e-06
4.72845e-06
4.72844e-06
4.72846e-06
4.7285e-06
4.72857e-06
4.73198e-06
4.73147e-06
4.73129e-06
4.73077e-06
4.73009e-06
4.72953e-06
4.72922e-06
4.72906e-06
4.72899e-06
4.72891e-06
4.72883e-06
4.72873e-06
4.72864e-06
4.72856e-06
4.7285e-06
4.72846e-06
4.72846e-06
4.72847e-06
4.72852e-06
4.7286e-06
4.73203e-06
4.73152e-06
4.73134e-06
4.73082e-06
4.73014e-06
4.72958e-06
4.72927e-06
4.72912e-06
4.72905e-06
4.72897e-06
4.72888e-06
4.72878e-06
4.72868e-06
4.7286e-06
4.72853e-06
4.72847e-06
4.72846e-06
4.72847e-06
4.72854e-06
4.72863e-06
4.73209e-06
4.73159e-06
4.7314e-06
4.73087e-06
4.73019e-06
4.72963e-06
4.72933e-06
4.72918e-06
4.72912e-06
4.72904e-06
4.72895e-06
4.72884e-06
4.72873e-06
4.72864e-06
4.72856e-06
4.7285e-06
4.72848e-06
4.72849e-06
4.72857e-06
4.72867e-06
4.73214e-06
4.73163e-06
4.73144e-06
4.73091e-06
4.73023e-06
4.72967e-06
4.72937e-06
4.72923e-06
4.72918e-06
4.72909e-06
4.72899e-06
4.72887e-06
4.72876e-06
4.72866e-06
4.72856e-06
4.72849e-06
4.72846e-06
4.72848e-06
4.72857e-06
4.72869e-06
4.73222e-06
4.73172e-06
4.73151e-06
4.73097e-06
4.73029e-06
4.72974e-06
4.72944e-06
4.72931e-06
4.72926e-06
4.72917e-06
4.72906e-06
4.72893e-06
4.72881e-06
4.7287e-06
4.72859e-06
4.72851e-06
4.72848e-06
4.7285e-06
4.7286e-06
4.72875e-06
4.73225e-06
4.73175e-06
4.73153e-06
4.73099e-06
4.73031e-06
4.72975e-06
4.72947e-06
4.72935e-06
4.7293e-06
4.72921e-06
4.72909e-06
4.72895e-06
4.72881e-06
4.72869e-06
4.72857e-06
4.72847e-06
4.72844e-06
4.72845e-06
4.72858e-06
4.72875e-06
4.73235e-06
4.73184e-06
4.73161e-06
4.73106e-06
4.73038e-06
4.72983e-06
4.72955e-06
4.72944e-06
4.7294e-06
4.72929e-06
4.72917e-06
4.72901e-06
4.72886e-06
4.72874e-06
4.7286e-06
4.72849e-06
4.72845e-06
4.72847e-06
4.72862e-06
4.72882e-06
4.73235e-06
4.73185e-06
4.7316e-06
4.73105e-06
4.73037e-06
4.72982e-06
4.72956e-06
4.72945e-06
4.72942e-06
4.72931e-06
4.72917e-06
4.72899e-06
4.72884e-06
4.7287e-06
4.72854e-06
4.7284e-06
4.72836e-06
4.72838e-06
4.72856e-06
4.72879e-06
4.73248e-06
4.73197e-06
4.7317e-06
4.73114e-06
4.73047e-06
4.72992e-06
4.72966e-06
4.72957e-06
4.72955e-06
4.72942e-06
4.72927e-06
4.72907e-06
4.72891e-06
4.72876e-06
4.72857e-06
4.72842e-06
4.72836e-06
4.72839e-06
4.7286e-06
4.72888e-06
4.73245e-06
4.73194e-06
4.73165e-06
4.73108e-06
4.73042e-06
4.72987e-06
4.72963e-06
4.72956e-06
4.72955e-06
4.72941e-06
4.72924e-06
4.72903e-06
4.72885e-06
4.72869e-06
4.72847e-06
4.72829e-06
4.72822e-06
4.72825e-06
4.7285e-06
4.72882e-06
4.7326e-06
4.73208e-06
4.73176e-06
4.73118e-06
4.73053e-06
4.72999e-06
4.72977e-06
4.72971e-06
4.7297e-06
4.72954e-06
4.72935e-06
4.72912e-06
4.72894e-06
4.72877e-06
4.72852e-06
4.72831e-06
4.72821e-06
4.72825e-06
4.72854e-06
4.72892e-06
4.7356e-06
4.73546e-06
4.73481e-06
4.73415e-06
4.73392e-06
4.73302e-06
4.73269e-06
4.7332e-06
4.73272e-06
4.73316e-06
4.73245e-06
4.7329e-06
4.73216e-06
4.73268e-06
4.73268e-06
4.7317e-06
4.73199e-06
4.73138e-06
4.73143e-06
4.73223e-06
4.20888e-06
3.77806e-06
3.40678e-06
3.21202e-06
3.24314e-06
3.46758e-06
3.80602e-06
4.18157e-06
4.53481e-06
4.82212e-06
5.01792e-06
5.11824e-06
5.13695e-06
5.10191e-06
5.04804e-06
5.0008e-06
4.96485e-06
4.91447e-06
4.79813e-06
4.56558e-06
2.81948e-06
3.06711e-06
3.49031e-06
3.98063e-06
4.43572e-06
4.79604e-06
5.04969e-06
5.20616e-06
5.26296e-06
5.21983e-06
5.15177e-06
5.13093e-06
5.09854e-06
4.93709e-06
4.61439e-06
4.2281e-06
3.80681e-06
3.38287e-06
3.02109e-06
2.80783e-06
3.87126e-06
4.20078e-06
4.53396e-06
4.79364e-06
4.96345e-06
5.05604e-06
5.09957e-06
5.11485e-06
5.05728e-06
5.12963e-06
5.9733e-06
7.61179e-06
9.19973e-06
9.80737e-06
9.27546e-06
8.03358e-06
6.41306e-06
4.9202e-06
3.99398e-06
3.71554e-06
4.7199e-06
4.76553e-06
4.84934e-06
4.90553e-06
4.93091e-06
4.94071e-06
4.94798e-06
4.95604e-06
4.93908e-06
6.24948e-06
1.06395e-05
1.71723e-05
2.26995e-05
2.43578e-05
2.238e-05
1.78749e-05
1.25817e-05
8.28209e-06
5.86052e-06
4.922e-06
5.60245e-06
5.13986e-06
4.96279e-06
4.89499e-06
4.87056e-06
4.86432e-06
4.86811e-06
4.88471e-06
5.39579e-06
9.81239e-06
2.04876e-05
3.45984e-05
4.5926e-05
5.03167e-05
4.68014e-05
3.67857e-05
2.49313e-05
1.53398e-05
9.5453e-06
6.76472e-06
5.62801e-06
5.09004e-06
4.89853e-06
4.83359e-06
4.81434e-06
4.81135e-06
4.81706e-06
4.86767e-06
6.68034e-06
1.45227e-05
3.07501e-05
5.13771e-05
6.66834e-05
7.01918e-05
6.18761e-05
4.63168e-05
3.0087e-05
1.7727e-05
1.04642e-05
7.03661e-06
5.77227e-06
5.09431e-06
4.8709e-06
4.80247e-06
4.78484e-06
4.783e-06
4.78845e-06
4.84556e-06
7.21291e-06
1.47935e-05
3.03276e-05
5.45237e-05
7.97314e-05
9.12596e-05
8.3301e-05
6.28241e-05
4.03625e-05
2.28264e-05
1.24339e-05
7.63626e-06
5.34304e-06
4.92477e-06
4.80255e-06
4.76979e-06
4.76299e-06
4.76376e-06
4.76841e-06
4.79022e-06
5.73252e-06
8.22224e-06
1.50908e-05
3.2413e-05
5.9547e-05
7.98969e-05
7.86162e-05
5.98899e-05
3.6944e-05
1.9581e-05
1.03695e-05
6.63884e-06
4.93138e-06
4.79508e-06
4.75947e-06
4.75143e-06
4.75081e-06
4.75279e-06
4.75671e-06
4.76432e-06
4.79559e-06
4.07227e-06
3.66737e-06
8.17761e-06
2.33632e-05
4.10941e-05
4.39962e-05
3.32318e-05
1.97383e-05
1.08491e-05
6.84824e-06
5.39665e-06
4.77886e-06
4.75133e-06
4.74463e-06
4.74328e-06
4.74362e-06
4.74523e-06
4.74816e-06
4.75442e-06
4.76284e-06
3.76663e-06
2.76391e-06
3.30402e-06
8.3061e-06
1.53401e-05
1.66395e-05
1.27482e-05
8.54855e-06
6.18624e-06
5.21251e-06
4.87724e-06
4.74424e-06
4.74024e-06
4.73918e-06
4.73904e-06
4.73937e-06
4.74055e-06
4.74263e-06
4.74759e-06
4.75301e-06
3.63249e-06
2.64988e-06
2.34375e-06
3.42623e-06
5.40336e-06
6.1772e-06
5.78732e-06
5.2397e-06
4.9247e-06
4.79618e-06
4.75361e-06
4.73759e-06
4.73694e-06
4.73661e-06
4.73647e-06
4.73653e-06
4.73722e-06
4.73868e-06
4.74244e-06
4.74661e-06
3.51075e-06
2.44273e-06
1.98531e-06
2.29021e-06
3.18877e-06
3.99907e-06
4.44694e-06
4.63635e-06
4.70505e-06
4.72718e-06
4.73335e-06
4.73539e-06
4.7352e-06
4.73501e-06
4.73484e-06
4.73474e-06
4.73505e-06
4.73596e-06
4.73844e-06
4.74147e-06
3.44252e-06
2.29163e-06
1.76511e-06
2.01544e-06
2.83858e-06
3.70142e-06
4.27751e-06
4.56435e-06
4.6796e-06
4.71855e-06
4.7298e-06
4.73427e-06
4.73417e-06
4.73402e-06
4.73377e-06
4.73352e-06
4.73355e-06
4.73407e-06
4.73561e-06
4.74019e-06
3.43163e-06
2.32311e-06
1.82857e-06
2.06662e-06
2.85557e-06
3.6999e-06
4.27406e-06
4.56252e-06
4.67841e-06
4.71741e-06
4.72866e-06
4.73362e-06
4.73351e-06
4.73337e-06
4.73308e-06
4.73274e-06
4.73257e-06
4.73279e-06
4.73362e-06
4.73796e-06
3.40935e-06
2.22379e-06
1.77363e-06
2.12085e-06
2.95264e-06
3.77703e-06
4.31591e-06
4.57993e-06
4.68402e-06
4.71853e-06
4.72838e-06
4.73346e-06
4.73313e-06
4.73295e-06
4.73261e-06
4.7322e-06
4.7319e-06
4.7318e-06
4.73194e-06
4.73438e-06
3.64967e-06
2.3687e-06
1.9734e-06
2.4381e-06
3.28395e-06
4.01469e-06
4.441e-06
4.63168e-06
4.70157e-06
4.72338e-06
4.72928e-06
4.73349e-06
4.7329e-06
4.73267e-06
4.73231e-06
4.73186e-06
4.73151e-06
4.73134e-06
4.73131e-06
4.73104e-06
4.61732e-06
4.56772e-06
4.61146e-06
4.66783e-06
4.69526e-06
4.70452e-06
4.71625e-06
4.72487e-06
4.72894e-06
4.73034e-06
4.73067e-06
4.73327e-06
4.73269e-06
4.73248e-06
4.7321e-06
4.73161e-06
4.73123e-06
4.731e-06
4.7309e-06
4.7309e-06
4.72834e-06
4.72763e-06
4.72883e-06
4.72996e-06
4.73026e-06
4.73025e-06
4.73036e-06
4.73051e-06
4.73059e-06
4.73058e-06
4.73053e-06
4.7331e-06
4.73255e-06
4.73235e-06
4.73196e-06
4.73146e-06
4.73105e-06
4.7308e-06
4.73065e-06
4.73052e-06
4.7304e-06
4.7303e-06
4.7303e-06
4.73026e-06
4.73019e-06
4.73024e-06
4.73032e-06
4.73039e-06
4.73041e-06
4.73039e-06
4.73035e-06
4.73299e-06
4.73246e-06
4.73227e-06
4.73187e-06
4.73135e-06
4.73093e-06
4.73067e-06
4.73052e-06
4.73043e-06
4.73031e-06
4.73019e-06
4.7301e-06
4.73005e-06
4.73004e-06
4.73012e-06
4.73019e-06
4.73024e-06
4.73025e-06
4.73024e-06
4.73022e-06
4.73291e-06
4.7324e-06
4.73222e-06
4.73181e-06
4.73128e-06
4.73085e-06
4.73058e-06
4.73042e-06
4.73032e-06
4.73023e-06
4.73014e-06
4.73007e-06
4.73001e-06
4.72998e-06
4.73003e-06
4.73008e-06
4.73012e-06
4.73014e-06
4.73014e-06
4.73013e-06
4.73287e-06
4.73237e-06
4.73219e-06
4.73178e-06
4.73124e-06
4.73079e-06
4.73052e-06
4.73038e-06
4.73029e-06
4.7302e-06
4.73011e-06
4.73003e-06
4.72997e-06
4.72995e-06
4.72999e-06
4.73002e-06
4.73005e-06
4.73007e-06
4.73007e-06
4.73007e-06
4.73284e-06
4.73236e-06
4.73219e-06
4.73176e-06
4.73121e-06
4.73076e-06
4.73049e-06
4.73034e-06
4.73026e-06
4.73018e-06
4.7301e-06
4.73003e-06
4.72997e-06
4.72994e-06
4.72996e-06
4.72998e-06
4.73e-06
4.73002e-06
4.73003e-06
4.73003e-06
4.73284e-06
4.73236e-06
4.73219e-06
4.73176e-06
4.73121e-06
4.73075e-06
4.73048e-06
4.73034e-06
4.73026e-06
4.73018e-06
4.73011e-06
4.73003e-06
4.72997e-06
4.72994e-06
4.72995e-06
4.72996e-06
4.72997e-06
4.72999e-06
4.73e-06
4.73001e-06
4.73285e-06
4.73237e-06
4.73221e-06
4.73177e-06
4.73121e-06
4.73075e-06
4.73048e-06
4.73033e-06
4.73026e-06
4.73019e-06
4.73012e-06
4.73005e-06
4.72999e-06
4.72995e-06
4.72994e-06
4.72994e-06
4.72995e-06
4.72996e-06
4.72998e-06
4.73001e-06
4.73286e-06
4.7324e-06
4.73223e-06
4.73179e-06
4.73123e-06
4.73076e-06
4.73049e-06
4.73035e-06
4.73028e-06
4.73021e-06
4.73015e-06
4.73007e-06
4.73001e-06
4.72997e-06
4.72995e-06
4.72994e-06
4.72995e-06
4.72996e-06
4.72998e-06
4.73001e-06
4.73289e-06
4.73242e-06
4.73226e-06
4.73182e-06
4.73125e-06
4.73078e-06
4.73051e-06
4.73037e-06
4.7303e-06
4.73024e-06
4.73017e-06
4.7301e-06
4.73003e-06
4.72998e-06
4.72996e-06
4.72994e-06
4.72994e-06
4.72995e-06
4.72998e-06
4.73002e-06
4.73292e-06
4.73246e-06
4.73229e-06
4.73185e-06
4.73127e-06
4.7308e-06
4.73053e-06
4.7304e-06
4.73034e-06
4.73027e-06
4.73021e-06
4.73013e-06
4.73006e-06
4.73001e-06
4.72997e-06
4.72994e-06
4.72994e-06
4.72995e-06
4.72999e-06
4.73003e-06
4.73295e-06
4.73249e-06
4.73233e-06
4.73188e-06
4.7313e-06
4.73083e-06
4.73056e-06
4.73043e-06
4.73037e-06
4.73031e-06
4.73024e-06
4.73016e-06
4.73009e-06
4.73003e-06
4.72998e-06
4.72995e-06
4.72994e-06
4.72995e-06
4.72999e-06
4.73005e-06
4.73298e-06
4.73253e-06
4.73236e-06
4.73191e-06
4.73133e-06
4.73086e-06
4.73059e-06
4.73047e-06
4.73041e-06
4.73035e-06
4.73028e-06
4.73019e-06
4.73011e-06
4.73004e-06
4.72999e-06
4.72995e-06
4.72994e-06
4.72995e-06
4.73e-06
4.73007e-06
4.73303e-06
4.73258e-06
4.73241e-06
4.73195e-06
4.73137e-06
4.7309e-06
4.73064e-06
4.73051e-06
4.73046e-06
4.7304e-06
4.73032e-06
4.73023e-06
4.73014e-06
4.73007e-06
4.73001e-06
4.72996e-06
4.72994e-06
4.72995e-06
4.73002e-06
4.7301e-06
4.73306e-06
4.73261e-06
4.73243e-06
4.73197e-06
4.73139e-06
4.73092e-06
4.73066e-06
4.73055e-06
4.7305e-06
4.73043e-06
4.73035e-06
4.73025e-06
4.73016e-06
4.73008e-06
4.73e-06
4.72994e-06
4.72992e-06
4.72994e-06
4.73001e-06
4.73011e-06
4.73312e-06
4.73267e-06
4.73249e-06
4.73202e-06
4.73144e-06
4.73097e-06
4.73072e-06
4.7306e-06
4.73056e-06
4.73049e-06
4.7304e-06
4.73029e-06
4.73019e-06
4.73011e-06
4.73002e-06
4.72996e-06
4.72993e-06
4.72995e-06
4.73003e-06
4.73015e-06
4.73314e-06
4.73269e-06
4.7325e-06
4.73202e-06
4.73145e-06
4.73097e-06
4.73073e-06
4.73063e-06
4.73059e-06
4.73051e-06
4.73042e-06
4.7303e-06
4.73019e-06
4.7301e-06
4.72999e-06
4.72992e-06
4.72989e-06
4.7299e-06
4.73001e-06
4.73014e-06
4.73322e-06
4.73277e-06
4.73256e-06
4.73208e-06
4.7315e-06
4.73103e-06
4.7308e-06
4.7307e-06
4.73067e-06
4.73058e-06
4.73047e-06
4.73034e-06
4.73023e-06
4.73013e-06
4.73002e-06
4.72993e-06
4.7299e-06
4.72991e-06
4.73004e-06
4.7302e-06
4.73321e-06
4.73277e-06
4.73254e-06
4.73206e-06
4.73149e-06
4.73102e-06
4.73079e-06
4.7307e-06
4.73068e-06
4.73058e-06
4.73047e-06
4.73032e-06
4.7302e-06
4.73009e-06
4.72996e-06
4.72985e-06
4.72982e-06
4.72983e-06
4.72998e-06
4.73017e-06
4.73332e-06
4.73287e-06
4.73263e-06
4.73214e-06
4.73157e-06
4.7311e-06
4.73088e-06
4.7308e-06
4.73078e-06
4.73068e-06
4.73055e-06
4.73039e-06
4.73026e-06
4.73014e-06
4.72998e-06
4.72986e-06
4.72982e-06
4.72984e-06
4.73002e-06
4.73024e-06
4.73329e-06
4.73284e-06
4.73258e-06
4.73208e-06
4.73152e-06
4.73105e-06
4.73085e-06
4.73079e-06
4.73077e-06
4.73066e-06
4.73052e-06
4.73035e-06
4.7302e-06
4.73007e-06
4.72989e-06
4.72975e-06
4.72969e-06
4.72972e-06
4.72992e-06
4.73019e-06
4.73341e-06
4.73295e-06
4.73267e-06
4.73217e-06
4.73161e-06
4.73115e-06
4.73096e-06
4.73091e-06
4.7309e-06
4.73077e-06
4.73061e-06
4.73042e-06
4.73027e-06
4.73014e-06
4.72993e-06
4.72976e-06
4.72968e-06
4.72972e-06
4.72996e-06
4.73027e-06
4.73614e-06
4.73601e-06
4.73542e-06
4.73486e-06
4.73471e-06
4.73391e-06
4.73364e-06
4.73411e-06
4.73366e-06
4.73408e-06
4.73343e-06
4.73386e-06
4.73319e-06
4.73368e-06
4.73367e-06
4.73279e-06
4.73308e-06
4.73253e-06
4.73259e-06
4.7333e-06
4.10524e-06
3.68134e-06
3.33685e-06
3.18144e-06
3.24965e-06
3.49775e-06
3.84449e-06
4.21653e-06
4.55752e-06
4.82519e-06
4.99549e-06
5.06811e-06
5.06224e-06
5.01085e-06
4.95159e-06
4.90869e-06
4.8821e-06
4.83874e-06
4.72128e-06
4.48023e-06
2.80414e-06
3.09113e-06
3.53389e-06
4.02361e-06
4.46452e-06
4.80678e-06
5.04402e-06
5.18719e-06
5.2288e-06
5.16009e-06
5.05828e-06
5.00536e-06
4.94852e-06
4.77335e-06
4.44953e-06
4.06908e-06
3.65789e-06
3.25169e-06
2.91948e-06
2.74801e-06
3.88063e-06
4.2211e-06
4.54964e-06
4.79882e-06
4.95803e-06
5.04273e-06
5.08219e-06
5.09488e-06
5.01217e-06
5.01047e-06
5.76038e-06
7.28858e-06
8.76064e-06
9.29246e-06
8.76591e-06
7.57569e-06
6.05232e-06
4.68591e-06
3.88023e-06
3.68372e-06
4.69999e-06
4.76201e-06
4.84616e-06
4.89905e-06
4.92212e-06
4.93123e-06
4.9385e-06
4.94358e-06
4.83773e-06
5.94802e-06
1.00386e-05
1.61284e-05
2.11724e-05
2.25327e-05
2.05739e-05
1.63518e-05
1.15266e-05
7.70976e-06
5.61658e-06
4.83796e-06
5.5219e-06
5.10614e-06
4.94644e-06
4.88537e-06
4.86385e-06
4.8588e-06
4.86303e-06
4.87082e-06
5.1805e-06
9.18528e-06
1.91737e-05
3.23191e-05
4.26858e-05
4.65111e-05
4.28485e-05
3.33771e-05
2.25852e-05
1.40783e-05
8.99359e-06
6.54671e-06
5.54176e-06
5.05718e-06
4.88542e-06
4.82771e-06
4.81114e-06
4.80903e-06
4.81487e-06
4.85101e-06
6.34808e-06
1.35475e-05
2.88017e-05
4.80203e-05
6.18082e-05
6.44496e-05
5.62247e-05
4.17614e-05
2.71587e-05
1.62391e-05
9.83834e-06
6.79585e-06
5.65722e-06
5.05518e-06
4.858e-06
4.79832e-06
4.78346e-06
4.78239e-06
4.78784e-06
4.82787e-06
6.85321e-06
1.38454e-05
2.86362e-05
5.14144e-05
7.42225e-05
8.3519e-05
7.50733e-05
5.60623e-05
3.59914e-05
2.05991e-05
1.15119e-05
7.29747e-06
5.27265e-06
4.90385e-06
4.797e-06
4.76881e-06
4.76327e-06
4.76437e-06
4.76904e-06
4.78759e-06
5.59246e-06
7.84313e-06
1.45302e-05
3.09865e-05
5.56869e-05
7.31955e-05
7.07745e-05
5.33801e-05
3.29512e-05
1.7736e-05
9.68384e-06
6.40973e-06
4.90897e-06
4.78975e-06
4.759e-06
4.75228e-06
4.75201e-06
4.75408e-06
4.75796e-06
4.76543e-06
4.79128e-06
4.02049e-06
3.62661e-06
7.94502e-06
2.21628e-05
3.78402e-05
3.97677e-05
2.98655e-05
1.79133e-05
1.01097e-05
6.59382e-06
5.31624e-06
4.77536e-06
4.75154e-06
4.74585e-06
4.74483e-06
4.74529e-06
4.74696e-06
4.74987e-06
4.75607e-06
4.76363e-06
3.72419e-06
2.71929e-06
3.24615e-06
8.00846e-06
1.43533e-05
1.53678e-05
1.1839e-05
8.10711e-06
6.01555e-06
5.15536e-06
4.86088e-06
4.74516e-06
4.74177e-06
4.74092e-06
4.7409e-06
4.74132e-06
4.74255e-06
4.74462e-06
4.74956e-06
4.75422e-06
3.58894e-06
2.60824e-06
2.31154e-06
3.37334e-06
5.24211e-06
5.97687e-06
5.65091e-06
5.1752e-06
4.90112e-06
4.78976e-06
4.75313e-06
4.73932e-06
4.7388e-06
4.73856e-06
4.73851e-06
4.73866e-06
4.73941e-06
4.74089e-06
4.74464e-06
4.74819e-06
3.46477e-06
2.40498e-06
1.96455e-06
2.28486e-06
3.18729e-06
3.99836e-06
4.44885e-06
4.63954e-06
4.70803e-06
4.72967e-06
4.73557e-06
4.73736e-06
4.73722e-06
4.73709e-06
4.737e-06
4.73698e-06
4.73736e-06
4.73831e-06
4.74081e-06
4.74329e-06
3.39684e-06
2.25389e-06
1.74647e-06
2.02104e-06
2.86386e-06
3.73092e-06
4.29947e-06
4.57696e-06
4.68612e-06
4.72224e-06
4.73246e-06
4.73635e-06
4.73629e-06
4.73618e-06
4.73601e-06
4.73584e-06
4.73594e-06
4.73651e-06
4.73809e-06
4.74222e-06
3.38729e-06
2.29217e-06
1.81531e-06
2.07584e-06
2.88487e-06
3.73304e-06
4.29819e-06
4.57608e-06
4.68531e-06
4.72128e-06
4.73146e-06
4.73577e-06
4.73568e-06
4.73558e-06
4.73536e-06
4.73511e-06
4.73502e-06
4.7353e-06
4.73617e-06
4.74013e-06
3.36327e-06
2.18953e-06
1.76171e-06
2.13362e-06
2.98403e-06
3.81007e-06
4.33911e-06
4.59276e-06
4.69058e-06
4.72233e-06
4.73121e-06
4.73561e-06
4.73534e-06
4.73519e-06
4.73493e-06
4.7346e-06
4.73439e-06
4.73434e-06
4.73453e-06
4.73669e-06
3.60681e-06
2.31786e-06
1.95355e-06
2.45313e-06
3.3175e-06
4.04523e-06
4.46019e-06
4.64174e-06
4.70684e-06
4.72673e-06
4.732e-06
4.73562e-06
4.73512e-06
4.73494e-06
4.73464e-06
4.73428e-06
4.73401e-06
4.73389e-06
4.73391e-06
4.73367e-06
4.61384e-06
4.56449e-06
4.61102e-06
4.66871e-06
4.69644e-06
4.70698e-06
4.71927e-06
4.72777e-06
4.73163e-06
4.73291e-06
4.73321e-06
4.73542e-06
4.73493e-06
4.73475e-06
4.73444e-06
4.73405e-06
4.73374e-06
4.73356e-06
4.7335e-06
4.73353e-06
4.73083e-06
4.73009e-06
4.73132e-06
4.73248e-06
4.73281e-06
4.73282e-06
4.73293e-06
4.73307e-06
4.73313e-06
4.73312e-06
4.73308e-06
4.73527e-06
4.7348e-06
4.73463e-06
4.7343e-06
4.73389e-06
4.73356e-06
4.73336e-06
4.73325e-06
4.73315e-06
4.73305e-06
4.73294e-06
4.73293e-06
4.7329e-06
4.73284e-06
4.73287e-06
4.73293e-06
4.73297e-06
4.73298e-06
4.73295e-06
4.73292e-06
4.73516e-06
4.73471e-06
4.73454e-06
4.73421e-06
4.73378e-06
4.73343e-06
4.73323e-06
4.73312e-06
4.73304e-06
4.73294e-06
4.73283e-06
4.73274e-06
4.73269e-06
4.73269e-06
4.73275e-06
4.7328e-06
4.73283e-06
4.73284e-06
4.73282e-06
4.7328e-06
4.73509e-06
4.73465e-06
4.73449e-06
4.73414e-06
4.7337e-06
4.73335e-06
4.73313e-06
4.73301e-06
4.73292e-06
4.73285e-06
4.73276e-06
4.7327e-06
4.73265e-06
4.73263e-06
4.73266e-06
4.7327e-06
4.73272e-06
4.73273e-06
4.73273e-06
4.73272e-06
4.73504e-06
4.73461e-06
4.73445e-06
4.7341e-06
4.73365e-06
4.73328e-06
4.73306e-06
4.73295e-06
4.73287e-06
4.7328e-06
4.73272e-06
4.73265e-06
4.7326e-06
4.73258e-06
4.73261e-06
4.73264e-06
4.73266e-06
4.73266e-06
4.73266e-06
4.73266e-06
4.73501e-06
4.73459e-06
4.73443e-06
4.73408e-06
4.73361e-06
4.73324e-06
4.73302e-06
4.7329e-06
4.73283e-06
4.73277e-06
4.7327e-06
4.73264e-06
4.73259e-06
4.73256e-06
4.73257e-06
4.73259e-06
4.7326e-06
4.73261e-06
4.73261e-06
4.73262e-06
4.735e-06
4.73458e-06
4.73443e-06
4.73406e-06
4.7336e-06
4.73322e-06
4.73299e-06
4.73288e-06
4.73281e-06
4.73275e-06
4.73269e-06
4.73263e-06
4.73257e-06
4.73255e-06
4.73256e-06
4.73256e-06
4.73257e-06
4.73257e-06
4.73258e-06
4.73259e-06
4.73499e-06
4.73458e-06
4.73443e-06
4.73406e-06
4.73359e-06
4.7332e-06
4.73298e-06
4.73286e-06
4.7328e-06
4.73274e-06
4.73269e-06
4.73263e-06
4.73257e-06
4.73255e-06
4.73254e-06
4.73254e-06
4.73254e-06
4.73255e-06
4.73256e-06
4.73258e-06
4.735e-06
4.73459e-06
4.73444e-06
4.73407e-06
4.73359e-06
4.7332e-06
4.73297e-06
4.73286e-06
4.7328e-06
4.73275e-06
4.73269e-06
4.73263e-06
4.73258e-06
4.73255e-06
4.73253e-06
4.73252e-06
4.73253e-06
4.73253e-06
4.73255e-06
4.73257e-06
4.73501e-06
4.7346e-06
4.73445e-06
4.73408e-06
4.73359e-06
4.7332e-06
4.73298e-06
4.73286e-06
4.73281e-06
4.73276e-06
4.7327e-06
4.73264e-06
4.73259e-06
4.73255e-06
4.73253e-06
4.73251e-06
4.73251e-06
4.73252e-06
4.73254e-06
4.73257e-06
4.73503e-06
4.73462e-06
4.73447e-06
4.73409e-06
4.7336e-06
4.73321e-06
4.73299e-06
4.73288e-06
4.73282e-06
4.73277e-06
4.73272e-06
4.73266e-06
4.7326e-06
4.73256e-06
4.73253e-06
4.73251e-06
4.7325e-06
4.73251e-06
4.73254e-06
4.73257e-06
4.73505e-06
4.73465e-06
4.73449e-06
4.73411e-06
4.73362e-06
4.73322e-06
4.733e-06
4.73289e-06
4.73284e-06
4.73279e-06
4.73274e-06
4.73267e-06
4.73261e-06
4.73257e-06
4.73253e-06
4.7325e-06
4.7325e-06
4.7325e-06
4.73254e-06
4.73258e-06
4.73507e-06
4.73467e-06
4.73451e-06
4.73413e-06
4.73364e-06
4.73324e-06
4.73302e-06
4.73291e-06
4.73287e-06
4.73281e-06
4.73276e-06
4.73269e-06
4.73262e-06
4.73257e-06
4.73253e-06
4.7325e-06
4.73249e-06
4.73249e-06
4.73253e-06
4.73259e-06
4.7351e-06
4.7347e-06
4.73454e-06
4.73415e-06
4.73366e-06
4.73326e-06
4.73304e-06
4.73294e-06
4.7329e-06
4.73285e-06
4.73279e-06
4.73271e-06
4.73264e-06
4.73259e-06
4.73254e-06
4.7325e-06
4.73249e-06
4.73249e-06
4.73254e-06
4.7326e-06
4.73511e-06
4.73472e-06
4.73456e-06
4.73416e-06
4.73367e-06
4.73327e-06
4.73306e-06
4.73296e-06
4.73292e-06
4.73286e-06
4.7328e-06
4.73272e-06
4.73265e-06
4.73258e-06
4.73252e-06
4.73248e-06
4.73246e-06
4.73247e-06
4.73253e-06
4.73261e-06
4.73516e-06
4.73477e-06
4.7346e-06
4.7342e-06
4.7337e-06
4.73331e-06
4.7331e-06
4.733e-06
4.73297e-06
4.73291e-06
4.73284e-06
4.73275e-06
4.73267e-06
4.7326e-06
4.73253e-06
4.73248e-06
4.73247e-06
4.73247e-06
4.73255e-06
4.73264e-06
4.73517e-06
4.73478e-06
4.7346e-06
4.73419e-06
4.7337e-06
4.73331e-06
4.7331e-06
4.73301e-06
4.73298e-06
4.73292e-06
4.73284e-06
4.73275e-06
4.73266e-06
4.73258e-06
4.7325e-06
4.73244e-06
4.73242e-06
4.73243e-06
4.73252e-06
4.73263e-06
4.73523e-06
4.73484e-06
4.73465e-06
4.73424e-06
4.73375e-06
4.73335e-06
4.73315e-06
4.73307e-06
4.73304e-06
4.73297e-06
4.73288e-06
4.73278e-06
4.73269e-06
4.73261e-06
4.73252e-06
4.73245e-06
4.73242e-06
4.73244e-06
4.73254e-06
4.73267e-06
4.73522e-06
4.73483e-06
4.73463e-06
4.73422e-06
4.73373e-06
4.73333e-06
4.73314e-06
4.73307e-06
4.73304e-06
4.73297e-06
4.73287e-06
4.73276e-06
4.73266e-06
4.73257e-06
4.73246e-06
4.73238e-06
4.73235e-06
4.73237e-06
4.73249e-06
4.73264e-06
4.73531e-06
4.73491e-06
4.73469e-06
4.73428e-06
4.73379e-06
4.7334e-06
4.73321e-06
4.73314e-06
4.73313e-06
4.73304e-06
4.73294e-06
4.73281e-06
4.7327e-06
4.7326e-06
4.73248e-06
4.73238e-06
4.73235e-06
4.73237e-06
4.73251e-06
4.7327e-06
4.73528e-06
4.73488e-06
4.73465e-06
4.73423e-06
4.73375e-06
4.73335e-06
4.73318e-06
4.73312e-06
4.73311e-06
4.73302e-06
4.73291e-06
4.73277e-06
4.73265e-06
4.73255e-06
4.7324e-06
4.73228e-06
4.73224e-06
4.73226e-06
4.73243e-06
4.73265e-06
4.73538e-06
4.73497e-06
4.73472e-06
4.7343e-06
4.73382e-06
4.73343e-06
4.73327e-06
4.73322e-06
4.73322e-06
4.73311e-06
4.73298e-06
4.73282e-06
4.73271e-06
4.7326e-06
4.73243e-06
4.73229e-06
4.73223e-06
4.73226e-06
4.73246e-06
4.73271e-06
4.73788e-06
4.73777e-06
4.73723e-06
4.73677e-06
4.73666e-06
4.73597e-06
4.73574e-06
4.73618e-06
4.73576e-06
4.73616e-06
4.73557e-06
4.73598e-06
4.73537e-06
4.73582e-06
4.73581e-06
4.73502e-06
4.73531e-06
4.73482e-06
4.73488e-06
4.7355e-06
4.01803e-06
3.60271e-06
3.28568e-06
3.16784e-06
3.26931e-06
3.53672e-06
3.88876e-06
4.25538e-06
4.58266e-06
4.8292e-06
4.97242e-06
5.01622e-06
4.98593e-06
4.92008e-06
4.85869e-06
4.82403e-06
4.8102e-06
4.77603e-06
4.65842e-06
4.40961e-06
2.80315e-06
3.12555e-06
3.58353e-06
4.06962e-06
4.49524e-06
4.81973e-06
5.04101e-06
5.1712e-06
5.19707e-06
5.10066e-06
4.9625e-06
4.8762e-06
4.79538e-06
4.60839e-06
4.28635e-06
3.91478e-06
3.51662e-06
3.13138e-06
2.83167e-06
2.70344e-06
3.89505e-06
4.24443e-06
4.56739e-06
4.80581e-06
4.95454e-06
5.03176e-06
5.06745e-06
5.07761e-06
4.9678e-06
4.88675e-06
5.5394e-06