/*--------------------------------*- C++ -*----------------------------------*\
| =========                 |                                                 |
| \\      /  F ield         | OpenFOAM: The Open Source CFD Toolbox           |
|  \\    /   O peration     | Version:  2.4.0                                 |
|   \\  /    A nd           | Web:      www.OpenFOAM.org                      |
|    \\/     M anipulation  |                                                 |
\*---------------------------------------------------------------------------*/
FoamFile
{
    version     2.0;
    format      ascii;
    class       volScalarField;
    location    "160";
    object      p;
}
// * * * * * * * * * * * * * * * * * * * * * * * * * * * * * * * * * * * * * //

dimensions      [0 2 -2 0 0 0 0];

internalField   nonuniform List<scalar> 
283312
(
-0.0062322
-0.00629503
-0.00653858
-0.00688159
-0.007235
-0.00752921
-0.00775688
-0.00791395
-0.00803385
-0.00814085
-0.00825557
-0.0083648
-0.0084363
-0.00841442
-0.00826454
-0.00799379
-0.00761432
-0.00716259
-0.00671932
-0.0063834
0.00214038
0.00163686
0.0012104
0.000942034
0.000844383
0.000911636
0.0010562
0.00119856
0.00131072
0.00140054
0.00147047
0.0015522
0.00168294
0.00188499
0.00217009
0.00253713
0.00285022
0.00299782
0.00291743
0.00260739
-0.00231409
-0.00215693
-0.00192766
-0.0016827
-0.00148708
-0.00138784
-0.00136826
-0.00137338
-0.00142118
-0.00146098
-0.00148873
-0.00146481
-0.00139205
-0.00129373
-0.00125147
-0.00136538
-0.0016157
-0.00191816
-0.00218475
-0.00232847
0.00146433
0.00164033
0.00178629
0.00190302
0.00198751
0.00205746
0.00206541
0.00207335
0.0020421
0.00205604
0.00207676
0.00212482
0.00214849
0.00209852
0.00196363
0.00171798
0.00146683
0.00128509
0.00123421
0.00131217
-0.000745192
-0.000545098
-0.000427675
-0.000348742
-0.000344774
-0.000330999
-0.000341441
-0.000326032
-0.000353245
-0.00032503
-0.000327961
-0.000384579
-0.000573228
-0.0009071
-0.00134323
-0.00168525
-0.00177134
-0.00162334
-0.00133274
-0.00101316
0.00119463
0.00130485
0.0013626
0.00140852
0.00142266
0.00143089
0.00139741
0.00138581
0.00132393
0.00133947
0.0012908
0.00116155
0.000865771
0.000489306
0.000218962
0.000153837
0.000291558
0.000542317
0.000812216
0.0010376
-0.000151421
-0.000110861
-0.000103725
-9.75827e-05
-0.000108462
-8.28539e-05
-8.25805e-05
-5.31515e-05
-8.22189e-05
-5.09461e-05
-0.000153346
-0.000422136
-0.000862363
-0.00129864
-0.00144017
-0.0012789
-0.000954398
-0.000633244
-0.000386454
-0.000231462
0.000756836
0.000806553
0.000829831
0.000854751
0.000843169
0.000839899
0.000802929
0.000783158
0.000716208
0.000709811
0.000563382
0.00025854
-0.000158099
-0.000374361
-0.000334871
-0.000102109
0.000188941
0.000421354
0.000586774
0.000691454
-2.10439e-06
7.03913e-07
-9.98056e-06
-1.13217e-05
-1.26402e-05
9.43641e-06
1.15353e-05
3.1683e-05
5.03206e-06
1.06464e-05
-0.000176972
-0.000576563
-0.00098108
-0.00107853
-0.000877928
-0.000590411
-0.000323757
-0.000156426
-5.82019e-05
-1.50506e-05
0.000437232
0.000462318
0.000472893
0.000483263
0.000470382
0.000462101
0.000432011
0.000410101
0.000358207
0.000342784
0.00016761
-0.000196846
-0.000448944
-0.000442912
-0.000219197
3.28652e-06
0.000188128
0.000294499
0.000366018
0.000407646
4.20734e-05
4.0858e-05
3.21332e-05
3.41655e-05
3.33665e-05
4.84502e-05
4.89309e-05
6.54643e-05
4.92909e-05
7.53781e-05
-9.80296e-05
-0.000523392
-0.00070476
-0.00062765
-0.000390388
-0.000207929
-7.05676e-05
-7.30698e-06
3.00482e-05
4.07686e-05
0.000248096
0.000260229
0.000263905
0.000266935
0.000255612
0.000246837
0.000223478
0.00020626
0.000172142
0.000192202
5.84823e-05
-0.000220849
-0.000326181
-0.000223011
-4.58776e-05
6.69012e-05
0.00015197
0.000188274
0.000218461
0.000234075
5.32426e-05
5.37572e-05
4.9379e-05
5.29346e-05
5.16611e-05
6.29583e-05
6.2745e-05
8.66435e-05
8.41496e-05
0.0001913
7.89658e-05
-0.00026675
-0.000351493
-0.000288178
-0.000145161
-6.46614e-05
2.70911e-06
2.65678e-05
4.66149e-05
5.10602e-05
0.000143461
0.00014889
0.00014902
0.000149231
0.00013931
0.000131489
0.000112536
0.000100716
8.10767e-05
0.00013896
9.96182e-05
-4.87593e-05
-0.000106631
-5.27015e-05
3.29681e-05
6.9293e-05
0.000106523
0.000116104
0.000130981
0.000136491
5.12159e-05
5.32627e-05
5.18557e-05
5.54752e-05
5.4207e-05
6.32467e-05
6.37066e-05
9.26255e-05
0.000105339
0.000280829
0.000268728
-4.86652e-05
-0.000135816
-0.000139335
-7.57382e-05
-3.59742e-05
9.59507e-06
2.51395e-05
4.22744e-05
4.70172e-05
8.74349e-05
8.97791e-05
8.8528e-05
8.7687e-05
7.92416e-05
7.23522e-05
5.61585e-05
4.58589e-05
2.85959e-05
8.62593e-05
0.000197044
3.85211e-05
-1.8579e-05
-1.94538e-05
2.0804e-05
3.38809e-05
6.21323e-05
6.87224e-05
8.0359e-05
8.3227e-05
4.48802e-05
4.72419e-05
4.71792e-05
5.00413e-05
4.88909e-05
5.49374e-05
5.48938e-05
7.16268e-05
6.83616e-05
0.000107566
6.76599e-05
-2.95976e-05
-3.9389e-05
-5.47808e-05
-2.15011e-05
-1.29174e-05
1.34505e-05
2.19845e-05
3.56858e-05
4.01498e-05
5.81825e-05
5.89824e-05
5.74525e-05
5.63247e-05
4.95349e-05
4.36728e-05
3.10226e-05
2.08926e-05
9.37027e-06
9.16353e-06
4.13737e-05
1.05959e-05
1.93121e-05
1.64668e-05
3.58143e-05
3.43281e-05
4.80332e-05
4.79637e-05
5.48794e-05
5.56845e-05
3.83067e-05
4.01843e-05
4.04748e-05
4.23252e-05
4.11894e-05
4.4668e-05
4.4741e-05
5.30832e-05
5.11094e-05
5.82437e-05
3.4024e-05
-1.5025e-05
-1.66286e-05
-3.07297e-05
-9.00261e-06
-5.47276e-06
1.34376e-05
1.93513e-05
3.02529e-05
3.39737e-05
4.26527e-05
4.2743e-05
4.14237e-05
4.03021e-05
3.51195e-05
3.04224e-05
2.10477e-05
1.23753e-05
3.96674e-06
-2.52768e-06
1.17491e-05
6.69081e-06
2.2797e-05
2.02854e-05
3.36022e-05
2.9508e-05
3.79337e-05
3.63238e-05
4.09174e-05
4.09795e-05
3.30311e-05
3.41203e-05
3.43592e-05
3.52927e-05
3.39576e-05
3.56007e-05
3.54715e-05
3.8957e-05
3.85676e-05
3.76325e-05
2.5405e-05
-5.21102e-06
-6.35768e-06
-1.75415e-05
-2.6198e-06
-4.21952e-07
1.36867e-05
1.81499e-05
2.66328e-05
2.93648e-05
3.40763e-05
3.38084e-05
3.28855e-05
3.18778e-05
2.80411e-05
2.45211e-05
1.78418e-05
1.09292e-05
5.32357e-06
-1.16177e-06
6.7251e-06
6.92883e-06
2.16213e-05
1.93659e-05
2.92083e-05
2.534e-05
3.11234e-05
2.95846e-05
3.29305e-05
3.28024e-05
2.93131e-05
2.95598e-05
2.97363e-05
2.9924e-05
2.84315e-05
2.88097e-05
2.82454e-05
2.88733e-05
2.94754e-05
2.58001e-05
2.08245e-05
5.6593e-07
7.27054e-07
-7.43959e-06
3.21534e-06
4.64158e-06
1.49123e-05
1.82381e-05
2.45603e-05
2.63436e-05
2.92779e-05
2.85914e-05
2.8119e-05
2.7164e-05
2.41991e-05
2.16367e-05
1.74937e-05
1.17376e-05
8.73533e-06
2.86132e-06
8.22868e-06
7.98268e-06
1.9647e-05
1.7129e-05
2.49229e-05
2.21578e-05
2.63929e-05
2.55357e-05
2.81658e-05
2.78969e-05
2.69026e-05
2.63195e-05
2.66046e-05
2.63125e-05
2.4593e-05
2.42801e-05
2.33647e-05
2.21231e-05
2.33232e-05
1.88006e-05
1.78416e-05
4.36538e-06
6.30051e-06
4.41419e-07
8.3298e-06
9.31107e-06
1.64078e-05
1.89447e-05
2.35264e-05
2.43953e-05
2.65068e-05
2.53283e-05
2.53208e-05
2.42811e-05
2.18842e-05
2.03157e-05
1.75121e-05
1.27908e-05
1.22456e-05
6.16972e-06
1.11829e-05
8.64309e-06
1.79454e-05
1.53432e-05
2.14183e-05
1.996e-05
2.31663e-05
2.31399e-05
2.52004e-05
2.47984e-05
2.52329e-05
2.41914e-05
2.47485e-05
2.38497e-05
2.22457e-05
2.15584e-05
2.07174e-05
1.79679e-05
1.96776e-05
1.47301e-05
1.65013e-05
7.13902e-06
1.06242e-05
5.83694e-06
1.2257e-05
1.29262e-05
1.77816e-05
1.98725e-05
2.28641e-05
2.32548e-05
2.49621e-05
2.28595e-05
2.36624e-05
2.25399e-05
2.02474e-05
1.93219e-05
1.75388e-05
1.32586e-05
1.45788e-05
8.36191e-06
1.35052e-05
9.21924e-06
1.70472e-05
1.40756e-05
1.92494e-05
1.88024e-05
2.0823e-05
2.18221e-05
2.34667e-05
2.27163e-05
2.46569e-05
2.26297e-05
2.37522e-05
2.22698e-05
2.04363e-05
2.0481e-05
1.9113e-05
1.5559e-05
1.86307e-05
1.22054e-05
1.66953e-05
8.44956e-06
1.37498e-05
9.60883e-06
1.46838e-05
1.57875e-05
1.86199e-05
2.07763e-05
2.24202e-05
2.21445e-05
2.36731e-05
2.1119e-05
2.27868e-05
2.10492e-05
1.91353e-05
1.87637e-05
1.76684e-05
1.27265e-05
1.61068e-05
9.12411e-06
1.52786e-05
9.35677e-06
1.70342e-05
1.29447e-05
1.7867e-05
1.81088e-05
1.93821e-05
2.12632e-05
2.19909e-05
2.13821e-05
2.45828e-05
2.07841e-05
2.3378e-05
2.17605e-05
1.90171e-05
1.96663e-05
1.84877e-05
1.40415e-05
1.85638e-05
1.08247e-05
1.74288e-05
9.22346e-06
1.60045e-05
1.15955e-05
1.65083e-05
1.78718e-05
1.83839e-05
2.15998e-05
2.25693e-05
2.11351e-05
2.3216e-05
1.92872e-05
2.22982e-05
2.00863e-05
1.75848e-05
1.881e-05
1.75076e-05
1.17267e-05
1.76044e-05
8.31476e-06
1.70229e-05
8.47481e-06
1.71685e-05
1.20486e-05
1.66897e-05
1.8132e-05
1.79599e-05
2.10832e-05
2.09315e-05
1.96794e-05
2.445e-05
1.95631e-05
2.35058e-05
2.08317e-05
1.78557e-05
1.97423e-05
1.81529e-05
1.23414e-05
1.92391e-05
9.48048e-06
1.86681e-05
9.11276e-06
1.79831e-05
1.21827e-05
1.7245e-05
1.9119e-05
1.8209e-05
2.24353e-05
2.20013e-05
2.02216e-05
2.3446e-05
1.66251e-05
2.23048e-05
1.97195e-05
1.50233e-05
1.93151e-05
1.72773e-05
9.75752e-06
1.87981e-05
6.58267e-06
1.84215e-05
6.91581e-06
1.77219e-05
1.05605e-05
1.54923e-05
1.87637e-05
1.57199e-05
2.11922e-05
2.03295e-05
1.71497e-05
2.45316e-05
1.77108e-05
2.40413e-05
2.01043e-05
1.62305e-05
2.04596e-05
1.77636e-05
1.01222e-05
2.07782e-05
7.2035e-06
2.05448e-05
7.54155e-06
1.96597e-05
1.13894e-05
1.73479e-05
2.00083e-05
1.70249e-05
2.33529e-05
2.13064e-05
1.88217e-05
2.35537e-05
1.34093e-05
2.31754e-05
1.86124e-05
1.17168e-05
2.05238e-05
1.68214e-05
6.07277e-06
2.05174e-05
3.09022e-06
2.02578e-05
3.74016e-06
1.8725e-05
7.7643e-06
1.39959e-05
1.90925e-05
1.28935e-05
2.19182e-05
1.8842e-05
1.40785e-05
2.52103e-05
1.48764e-05
2.50406e-05
1.91594e-05
1.30559e-05
2.17892e-05
1.70832e-05
7.1051e-06
2.23655e-05
4.07372e-06
2.226e-05
4.82886e-06
2.09075e-05
8.9081e-06
1.67656e-05
2.10412e-05
1.45479e-05
2.43342e-05
2.01596e-05
1.59757e-05
2.45042e-05
6.97911e-06
2.58049e-05
1.76601e-05
4.77398e-06
2.37662e-05
1.6255e-05
-1.77469e-06
2.40835e-05
-4.20953e-06
2.37616e-05
-3.15311e-06
2.11511e-05
1.35098e-06
1.14066e-05
2.05241e-05
6.79588e-06
2.40195e-05
1.72122e-05
8.11312e-06
2.56207e-05
9.72742e-06
2.69055e-05
1.70145e-05
7.58382e-06
2.44182e-05
1.534e-05
1.16154e-06
2.45665e-05
-1.75769e-06
2.42937e-05
-6.94803e-07
2.20802e-05
3.63539e-06
1.48967e-05
2.12532e-05
9.48821e-06
2.5631e-05
1.73611e-05
1.11266e-05
2.77416e-05
-7.36093e-06
3.3506e-05
1.38502e-05
-1.25813e-05
3.34513e-05
1.32609e-05
-2.04257e-05
3.17737e-05
-2.11286e-05
3.07198e-05
-1.94323e-05
2.64704e-05
-1.46156e-05
6.16483e-06
2.40498e-05
-7.36935e-06
3.03627e-05
1.23334e-05
-6.29435e-06
-0.0109182
-0.0105246
-0.010218
-0.0100063
-0.00988969
-0.00987555
-0.00999405
-0.0102259
-0.0105656
-0.0109894
-0.0114757
-0.0119736
-0.0124202
-0.0127374
-0.0128727
-0.0128368
-0.0126389
-0.012294
-0.0118514
-0.0113744
0.00233461
0.0022894
0.00215789
0.00199598
0.00184212
0.00175213
0.00168376
0.00159975
0.00147904
0.00132612
0.00112507
0.000902401
0.000712844
0.000617723
0.000677952
0.000943672
0.00132027
0.00171308
0.00204515
0.00225885
-0.00233246
-0.00209311
-0.00190324
-0.00176341
-0.00171053
-0.00176348
-0.00188855
-0.00203534
-0.00225044
-0.00250409
-0.00283447
-0.00318634
-0.00349214
-0.003667
-0.00370832
-0.00363728
-0.00345353
-0.00317939
-0.00288109
-0.00259412
0.00288948
0.00295488
0.00298081
0.00300044
0.00300736
0.00300947
0.00294477
0.00286923
0.00270509
0.00251427
0.0021867
0.00181546
0.00150342
0.0013676
0.00149163
0.00174958
0.00208786
0.00239314
0.0026274
0.00278994
-0.000462607
-0.000312578
-0.000238251
-0.000189587
-0.000225388
-0.000238825
-0.000297821
-0.000341565
-0.000493624
-0.000686543
-0.00110502
-0.00161249
-0.00204802
-0.00228811
-0.00231893
-0.00214008
-0.00178196
-0.00137132
-0.000987771
-0.00067907
0.0020049
0.00210835
0.00215946
0.00220613
0.00220317
0.00219446
0.00211312
0.00204364
0.0018505
0.00162892
0.00111753
0.000578843
0.000195379
0.000127875
0.000338677
0.000695704
0.00107515
0.00140503
0.00167077
0.00186973
5.30654e-05
9.93415e-05
0.000104276
0.000109287
8.7506e-05
0.000110266
8.08665e-05
7.48026e-05
-6.92957e-05
-0.00027542
-0.000872972
-0.00151078
-0.00192085
-0.00199017
-0.00170584
-0.00125645
-0.000798391
-0.000440238
-0.000186503
-2.93709e-05
0.00124057
0.00131246
0.00134535
0.00137956
0.00135516
0.00134159
0.00126523
0.00120014
0.00101459
0.000767115
0.000126616
-0.00046036
-0.000722638
-0.000555652
-0.000174754
0.000227089
0.000584651
0.000838672
0.0010254
0.00115294
0.000165385
0.000177517
0.000165803
0.000167401
0.000159831
0.000184
0.000164203
0.000159671
3.82586e-05
-0.00017972
-0.000850052
-0.00147416
-0.00167936
-0.00142795
-0.000961272
-0.000557755
-0.000234944
-4.22079e-05
8.0375e-05
0.000140855
0.000732071
0.00077372
0.00079013
0.000805623
0.000782508
0.000767021
0.000707242
0.000652607
0.000510739
0.0002869
-0.000329938
-0.00082684
-0.000831634
-0.000540086
-0.000130356
0.000160153
0.000388024
0.000518778
0.000619175
0.000683406
0.000171522
0.000177109
0.000167429
0.000173404
0.000167693
0.000185657
0.000170812
0.000174987
9.49074e-05
-4.74403e-05
-0.000615885
-0.00113955
-0.00107738
-0.000781141
-0.000405036
-0.000176318
-1.26546e-06
8.00704e-05
0.000138653
0.000161552
0.00042823
0.000450299
0.00045647
0.000462472
0.000442818
0.000429382
0.000385435
0.000349766
0.000260158
0.000136352
-0.000322851
-0.000610017
-0.000496464
-0.000233631
3.25456e-05
0.000165764
0.000276621
0.000324534
0.000374136
0.000402441
0.000149556
0.000155442
0.000150962
0.000158438
0.000153341
0.00016845
0.000159038
0.000185778
0.000152634
0.000179477
-0.000196461
-0.000567858
-0.000481771
-0.0003243
-0.000118775
-2.94745e-05
6.06831e-05
9.24742e-05
0.000128165
0.000140383
0.000256079
0.000267449
0.000268424
0.000270657
0.000253962
0.000243431
0.00021032
0.000191943
0.000146504
0.000139459
-8.00082e-05
-0.000194736
-0.000122694
-9.77097e-06
0.000109297
0.00013908
0.000189606
0.000201561
0.000229285
0.00024157
0.000122333
0.000128843
0.000127985
0.00013512
0.000130903
0.000144129
0.00013964
0.00018099
0.000188586
0.000363989
0.000229628
-0.000144374
-0.000153352
-0.00014042
-5.09408e-05
-1.4533e-05
4.95474e-05
7.02015e-05
0.000100959
0.000111817
0.000161417
0.000167513
0.000166435
0.000167029
0.000153027
0.000144296
0.000117209
0.000104996
7.45857e-05
0.000142865
0.000251485
9.17387e-06
-2.29426e-05
-1.65946e-05
5.13006e-05
6.39626e-05
0.000110478
0.000120862
0.000144058
0.000151651
9.84643e-05
0.000104296
0.000104939
0.000110569
0.000107
0.000116179
0.000112323
0.000137478
0.000127633
0.000184283
0.000108632
-6.07185e-05
-5.52796e-05
-7.7759e-05
-1.7632e-05
-7.98324e-06
3.84626e-05
5.26391e-05
7.86837e-05
8.82242e-05
0.000110574
0.000113671
0.000112047
0.000111891
0.000100624
9.31884e-05
7.20505e-05
5.93286e-05
3.8432e-05
4.13381e-05
7.45331e-05
4.29759e-06
2.82826e-05
1.98006e-05
5.89179e-05
5.49843e-05
8.30013e-05
8.45797e-05
0.000100275
0.000104021
8.04114e-05
8.46479e-05
8.54962e-05
8.92643e-05
8.60427e-05
9.1409e-05
8.85242e-05
0.000100821
9.40719e-05
0.000104404
6.25113e-05
-2.64706e-05
-1.85715e-05
-4.32054e-05
-2.37331e-06
3.53741e-07
3.45576e-05
4.3924e-05
6.43776e-05
7.16872e-05
8.28825e-05
8.42527e-05
8.27672e-05
8.22248e-05
7.35175e-05
6.74581e-05
5.17032e-05
3.99074e-05
2.46925e-05
1.52029e-05
2.98588e-05
7.9618e-06
3.82461e-05
2.90704e-05
5.66867e-05
4.86267e-05
6.71292e-05
6.55397e-05
7.64669e-05
7.82203e-05
6.78596e-05
7.02732e-05
7.08729e-05
7.29535e-05
6.96981e-05
7.22754e-05
6.97622e-05
7.44124e-05
7.1151e-05
6.80785e-05
4.74213e-05
-6.86638e-06
-1.05597e-06
-2.1535e-05
7.25681e-06
8.051e-06
3.35445e-05
4.00737e-05
5.5716e-05
6.07713e-05
6.73229e-05
6.75653e-05
6.65412e-05
6.57817e-05
5.9178e-05
5.45694e-05
4.32552e-05
3.32287e-05
2.32881e-05
1.22685e-05
2.122e-05
1.26594e-05
3.91009e-05
3.09172e-05
5.14318e-05
4.38219e-05
5.69132e-05
5.49541e-05
6.2952e-05
6.375e-05
5.96819e-05
6.032e-05
6.07835e-05
6.14681e-05
5.81638e-05
5.88414e-05
5.62827e-05
5.64083e-05
5.57266e-05
4.81531e-05
4.01333e-05
4.62938e-06
1.06609e-05
-4.88947e-06
1.6098e-05
1.61089e-05
3.46872e-05
3.93273e-05
5.0885e-05
5.40036e-05
5.85388e-05
5.76271e-05
5.72495e-05
5.62161e-05
5.09652e-05
4.76028e-05
4.03548e-05
3.15025e-05
2.64215e-05
1.56962e-05
2.30872e-05
1.66283e-05
3.77577e-05
3.00464e-05
4.6155e-05
4.05098e-05
5.00882e-05
4.89766e-05
5.50518e-05
5.51349e-05
5.46412e-05
5.35739e-05
5.42824e-05
5.39652e-05
5.04516e-05
5.01559e-05
4.75529e-05
4.46917e-05
4.59629e-05
3.68723e-05
3.61524e-05
1.2101e-05
1.97225e-05
8.00931e-06
2.38163e-05
2.36501e-05
3.65637e-05
4.01186e-05
4.84177e-05
4.98088e-05
5.35049e-05
5.1359e-05
5.17946e-05
5.02933e-05
4.59055e-05
4.39532e-05
3.89523e-05
3.11667e-05
3.06136e-05
1.92371e-05
2.755e-05
1.90843e-05
3.64307e-05
2.92009e-05
4.18924e-05
3.85708e-05
4.56003e-05
4.57702e-05
5.02794e-05
4.97735e-05
5.14242e-05
4.91404e-05
5.05039e-05
4.8995e-05
4.56796e-05
4.49981e-05
4.27986e-05
3.74821e-05
4.05693e-05
3.04542e-05
3.49222e-05
1.73163e-05
2.67779e-05
1.68805e-05
2.97619e-05
2.96476e-05
3.8389e-05
4.15699e-05
4.69534e-05
4.73156e-05
5.07706e-05
4.67115e-05
4.86538e-05
4.66405e-05
4.23816e-05
4.15397e-05
3.81577e-05
3.05636e-05
3.37472e-05
2.15823e-05
3.1411e-05
2.07641e-05
3.61048e-05
2.8591e-05
3.94021e-05
3.80061e-05
4.23794e-05
4.43084e-05
4.75271e-05
4.61865e-05
5.02123e-05
4.58601e-05
4.85379e-05
4.58061e-05
4.21057e-05
4.27747e-05
3.99886e-05
3.30881e-05
3.9304e-05
2.63818e-05
3.60309e-05
1.98333e-05
3.20383e-05
2.29544e-05
3.34897e-05
3.44861e-05
3.94274e-05
4.31771e-05
4.60142e-05
4.5122e-05
4.87741e-05
4.32588e-05
4.709e-05
4.37746e-05
3.9855e-05
4.02597e-05
3.78582e-05
2.87708e-05
3.61637e-05
2.19282e-05
3.4676e-05
2.12601e-05
3.69559e-05
2.76727e-05
3.78764e-05
3.79654e-05
4.02582e-05
4.4013e-05
4.52653e-05
4.37347e-05
5.00112e-05
4.22585e-05
4.78596e-05
4.44303e-05
3.91896e-05
4.13851e-05
3.87897e-05
2.99704e-05
3.97399e-05
2.37285e-05
3.80213e-05
2.09723e-05
3.60073e-05
2.60106e-05
3.62165e-05
3.81312e-05
3.87825e-05
4.47813e-05
4.59646e-05
4.30619e-05
4.81806e-05
3.96373e-05
4.64253e-05
4.18571e-05
3.67052e-05
4.02546e-05
3.7316e-05
2.62449e-05
3.88366e-05
1.98253e-05
3.80501e-05
1.9745e-05
3.79918e-05
2.6512e-05
3.64196e-05
3.87851e-05
3.78793e-05
4.43025e-05
4.35468e-05
4.06471e-05
4.99719e-05
3.93594e-05
4.82094e-05
4.26079e-05
3.64445e-05
4.16699e-05
3.80377e-05
2.6341e-05
4.14759e-05
2.06941e-05
4.08405e-05
2.01943e-05
3.9583e-05
2.65134e-05
3.71948e-05
4.05468e-05
3.78715e-05
4.64778e-05
4.48433e-05
4.08913e-05
4.87224e-05
3.45831e-05
4.67933e-05
4.07948e-05
3.18463e-05
4.13568e-05
3.66634e-05
2.19773e-05
4.14042e-05
1.59119e-05
4.11377e-05
1.65605e-05
3.96462e-05
2.38144e-05
3.46483e-05
4.03316e-05
3.39034e-05
4.50765e-05
4.22737e-05
3.60723e-05
5.03982e-05
3.5149e-05
4.95117e-05
4.10028e-05
3.25717e-05
4.33261e-05
3.71139e-05
2.13952e-05
4.47238e-05
1.56541e-05
4.47388e-05
1.65287e-05
4.2818e-05
2.4282e-05
3.70186e-05
4.23941e-05
3.49907e-05
4.84402e-05
4.32943e-05
3.75877e-05
4.92715e-05
2.81659e-05
4.88e-05
3.85678e-05
2.52844e-05
4.39983e-05
3.55488e-05
1.45796e-05
4.50949e-05
8.7172e-06
4.51058e-05
1.01677e-05
4.20288e-05
1.8317e-05
3.21283e-05
4.14041e-05
2.83799e-05
4.68923e-05
3.94348e-05
3.01394e-05
5.18646e-05
2.87369e-05
5.20239e-05
3.88573e-05
2.55869e-05
4.65514e-05
3.55526e-05
1.42652e-05
4.85232e-05
8.32341e-06
4.87656e-05
1.00884e-05
4.56692e-05
1.8502e-05
3.55239e-05
4.44771e-05
2.93613e-05
5.08087e-05
4.06973e-05
3.14557e-05
5.1232e-05
1.62852e-05
5.39526e-05
3.62107e-05
1.2502e-05
5.03899e-05
3.39478e-05
1.44466e-07
5.19451e-05
-4.9962e-06
5.18304e-05
-2.68937e-06
4.66569e-05
6.42509e-06
2.76663e-05
4.40789e-05
1.71937e-05
5.10431e-05
3.58592e-05
1.9213e-05
5.32746e-05
1.79276e-05
5.66237e-05
3.46328e-05
1.39746e-05
5.27463e-05
3.21143e-05
1.53189e-06
5.3912e-05
-4.21186e-06
5.37989e-05
-1.74703e-06
4.88402e-05
7.28615e-06
3.17926e-05
4.56341e-05
1.88603e-05
5.42266e-05
3.5215e-05
2.13705e-05
5.66302e-05
-6.59354e-06
6.69941e-05
2.95947e-05
-1.48501e-05
6.68584e-05
2.87202e-05
-2.941e-05
6.52133e-05
-3.21937e-05
6.39079e-05
-2.87637e-05
5.57292e-05
-1.90388e-05
1.96172e-05
4.99965e-05
-5.2589e-06
6.16701e-05
2.73233e-05
-3.38205e-06
-0.013441
-0.0128901
-0.0124395
-0.0121115
-0.0119192
-0.0118914
-0.0120449
-0.012358
-0.0128201
-0.0133959
-0.0140497
-0.0147135
-0.0153059
-0.0157326
-0.0159281
-0.0158999
-0.0156613
-0.0152329
-0.0146723
-0.014053
0.00195335
0.00201067
0.00194365
0.00180839
0.00165055
0.00153465
0.00139883
0.00122478
0.000991072
0.000707221
0.000361637
-5.37665e-06
-0.000317948
-0.000492252
-0.00044857
-0.000137015
0.00034225
0.000877718
0.00137053
0.00174174
-0.00273418
-0.00242293
-0.00220271
-0.00206392
-0.00204665
-0.00215109
-0.00234517
-0.00258176
-0.00291344
-0.00330871
-0.00380798
-0.00433171
-0.00477734
-0.00502048
-0.00505224
-0.00487272
-0.00451375
-0.0040399
-0.00355291
-0.00310988
0.00336094
0.00343994
0.00345993
0.00346485
0.00344426
0.0034026
0.00327911
0.00312647
0.0028507
0.00251621
0.0020011
0.0014457
0.00101401
0.000874442
0.00112269
0.00156817
0.00211595
0.00260465
0.00297393
0.0032203
-0.000290562
-0.000129215
-5.6676e-05
-1.8511e-05
-7.75034e-05
-0.000115999
-0.000223119
-0.000333126
-0.000596433
-0.000944161
-0.00158248
-0.0022965
-0.00283078
-0.00304318
-0.00291679
-0.00252208
-0.00195735
-0.00138779
-0.000901377
-0.000534827
0.00245327
0.00257461
0.00263139
0.00267918
0.00265717
0.00262532
0.00249562
0.00236099
0.00205262
0.00166674
0.000911598
0.000177158
-0.000259135
-0.000207593
0.000195352
0.000749217
0.00128422
0.00171894
0.0020513
0.00229207
0.000278633
0.000339156
0.000347257
0.000350594
0.000319356
0.000328382
0.000261522
0.0002021
-5.08888e-05
-0.000424289
-0.00128814
-0.00211613
-0.00254377
-0.00246288
-0.00197476
-0.00134855
-0.000762736
-0.000323555
-1.68517e-05
0.000174737
0.00156365
0.00165449
0.00169476
0.00173164
0.00169474
0.00166513
0.00154982
0.00143085
0.00113816
0.000721762
-0.000188738
-0.000936127
-0.00115524
-0.000828573
-0.000259482
0.000279166
0.000734493
0.00105276
0.00128774
0.00145061
0.000357138
0.000381457
0.000372263
0.00037641
0.000360757
0.000376287
0.00032716
0.000280637
6.54095e-05
-0.000312709
-0.00125341
-0.00202109
-0.00214877
-0.00172885
-0.00109349
-0.000578496
-0.000175764
6.77558e-05
0.000228812
0.000315396
0.000950687
0.00100552
0.00102615
0.00104313
0.00101072
0.000984459
0.000895617
0.00080108
0.000574472
0.000203736
-0.000665909
-0.00126521
-0.00116833
-0.000723712
-0.000177052
0.000197127
0.000489032
0.000661032
0.000795819
0.000884324
0.000317285
0.000331477
0.000323286
0.000331802
0.000319713
0.00033248
0.000296694
0.000273924
0.000126202
-0.000137388
-0.000937437
-0.00154511
-0.00136971
-0.000944846
-0.000457277
-0.00016663
5.91077e-05
0.000170749
0.000255612
0.000295438
0.000573893
0.000604199
0.000612245
0.000619422
0.000592498
0.000572364
0.000508584
0.000448969
0.000304219
8.1851e-05
-0.00057231
-0.000897892
-0.000681221
-0.000317059
3.08517e-05
0.000204669
0.000353479
0.000423144
0.000494488
0.000537036
0.00025594
0.000267904
0.000264436
0.000274129
0.000264138
0.000277112
0.000254549
0.000270948
0.000200089
0.000168059
-0.00037074
-0.000783503
-0.000612159
-0.00038848
-0.000121556
-6.16552e-06
0.000114431
0.000162079
0.000215507
0.000238371
0.00035456
0.000371172
0.000372893
0.000376188
0.000353789
0.000339476
0.000293367
0.000264532
0.000191071
0.000141826
-0.000190101
-0.000318579
-0.000182122
-2.65265e-05
0.0001325
0.000175069
0.000247705
0.000269922
0.000312028
0.000332752
0.000199625
0.00021057
0.000210474
0.000219507
0.000211531
0.000224526
0.000212309
0.000254495
0.00024826
0.000420079
0.000204964
-0.000225964
-0.000192886
-0.000163426
-4.10909e-05
4.4713e-06
9.00718e-05
0.000120129
0.000164443
0.000182673
0.000230593
0.000240195
0.000239378
0.000240862
0.000222261
0.00021126
0.000174893
0.000158833
0.000114552
0.000183787
0.00027145
-3.0558e-05
-4.19005e-05
-2.78613e-05
6.62911e-05
8.55114e-05
0.000150464
0.000167659
0.000202168
0.000215478
0.000155985
0.000164992
0.000166143
0.000173221
0.000166593
0.000175867
0.000166548
0.000193309
0.000174611
0.000235876
0.000130956
-8.85269e-05
-7.02869e-05
-9.46801e-05
-1.0952e-05
3.35613e-06
6.77491e-05
8.8685e-05
0.000125758
0.000140691
0.000161993
0.000167404
0.000165805
0.000166284
0.000151267
0.000142158
0.000113975
9.83599e-05
6.84479e-05
7.03009e-05
9.53569e-05
-6.88903e-06
2.87725e-05
1.71902e-05
7.4396e-05
7.19765e-05
0.000113888
0.000119451
0.000143825
0.000151435
0.000125202
0.000131532
0.000132629
0.000137338
0.00013151
0.00013674
0.000129707
0.000142153
0.000129597
0.000138911
8.3415e-05
-3.55911e-05
-1.96271e-05
-5.042e-05
7.01395e-06
1.13376e-05
5.90804e-05
7.26809e-05
0.000101586
0.000112618
0.000123595
0.000126369
0.000124788
0.000124596
0.000112826
0.000105397
8.43067e-05
6.96262e-05
4.81765e-05
3.49466e-05
4.57779e-05
7.4484e-06
4.75709e-05
3.3301e-05
7.39426e-05
6.50831e-05
9.3719e-05
9.42296e-05
0.000111641
0.000115917
0.000104698
0.000108287
0.000108949
0.000111498
0.000105932
0.00010811
0.000102315
0.000105958
9.89823e-05
9.24208e-05
6.53933e-05
-7.06489e-06
5.22244e-06
-2.13266e-05
1.96507e-05
2.05809e-05
5.61228e-05
6.52434e-05
8.72028e-05
9.46776e-05
0.000101574
0.000102473
0.000101338
0.000100646
9.15082e-05
8.57753e-05
7.04851e-05
5.76452e-05
4.37527e-05
2.82187e-05
3.59293e-05
1.77141e-05
5.24556e-05
3.93737e-05
6.96334e-05
6.0626e-05
8.12152e-05
8.04518e-05
9.32975e-05
9.56725e-05
9.16735e-05
9.26863e-05
9.31676e-05
9.39054e-05
8.85016e-05
8.86283e-05
8.3429e-05
8.18231e-05
7.90582e-05
6.72714e-05
5.69649e-05
9.73884e-06
2.15229e-05
8.69358e-07
3.10742e-05
3.0689e-05
5.6635e-05
6.29453e-05
7.91434e-05
8.3699e-05
8.89497e-05
8.79912e-05
8.76142e-05
8.6358e-05
7.89148e-05
7.46706e-05
6.4555e-05
5.29251e-05
4.58428e-05
3.05062e-05
3.84645e-05
2.51197e-05
5.32703e-05
4.12206e-05
6.49351e-05
5.80651e-05
7.31971e-05
7.29754e-05
8.26513e-05
8.35872e-05
8.37613e-05
8.23174e-05
8.31859e-05
8.25539e-05
7.70633e-05
7.62426e-05
7.15039e-05
6.63991e-05
6.70019e-05
5.34363e-05
5.30432e-05
2.07206e-05
3.38629e-05
1.78952e-05
4.08836e-05
4.02825e-05
5.84555e-05
6.32791e-05
7.4904e-05
7.6963e-05
8.16811e-05
7.878e-05
7.9496e-05
7.74386e-05
7.10574e-05
6.85511e-05
6.14019e-05
5.07912e-05
4.99787e-05
3.37866e-05
4.4229e-05
2.97978e-05
5.34512e-05
4.23434e-05
6.11791e-05
5.7102e-05
6.81404e-05
6.92568e-05
7.63336e-05
7.60995e-05
7.88872e-05
7.54891e-05
7.73888e-05
7.51477e-05
6.99355e-05
6.89413e-05
6.50133e-05
5.69525e-05
6.07547e-05
4.57641e-05
5.26051e-05
2.82944e-05
4.34088e-05
2.96406e-05
4.84064e-05
4.80746e-05
6.03953e-05
6.48525e-05
7.24479e-05
7.28945e-05
7.7733e-05
7.2052e-05
7.48426e-05
7.18827e-05
6.56394e-05
6.46899e-05
5.96107e-05
4.89071e-05
5.34908e-05
3.59753e-05
4.94862e-05
3.28864e-05
5.44641e-05
4.31507e-05
5.92236e-05
5.76265e-05
6.45905e-05
6.78453e-05
7.27171e-05
7.11055e-05
7.68671e-05
7.04482e-05
7.43612e-05
7.0406e-05
6.46976e-05
6.56425e-05
6.1271e-05
5.10519e-05
5.96489e-05
4.08804e-05
5.49442e-05
3.21234e-05
5.06167e-05
3.75822e-05
5.31936e-05
5.44451e-05
6.14382e-05
6.68762e-05
7.09144e-05
6.95374e-05
7.50957e-05
6.69403e-05
7.2544e-05
6.77364e-05
6.16769e-05
6.26906e-05
5.8777e-05
4.58926e-05
5.65846e-05
3.58468e-05
5.41717e-05
3.40141e-05
5.66132e-05
4.30416e-05
5.81237e-05
5.86127e-05
6.2129e-05
6.79129e-05
6.9858e-05
6.7557e-05
7.637e-05
6.521e-05
7.32714e-05
6.808e-05
6.0374e-05
6.37929e-05
5.9607e-05
4.66022e-05
6.0774e-05
3.736e-05
5.83498e-05
3.37009e-05
5.61699e-05
4.151e-05
5.65889e-05
5.93553e-05
6.04189e-05
6.90459e-05
7.0496e-05
6.63984e-05
7.43202e-05
6.16634e-05
7.16752e-05
6.49179e-05
5.7051e-05
6.25755e-05
5.78685e-05
4.195e-05
6.02432e-05
3.26654e-05
5.9057e-05
3.22345e-05
5.88409e-05
4.20087e-05
5.68029e-05
6.03936e-05
5.90856e-05
6.87172e-05
6.76105e-05
6.32255e-05
7.63299e-05
6.06312e-05
7.37178e-05
6.54407e-05
5.608e-05
6.42527e-05
5.85147e-05
4.12956e-05
6.35826e-05
3.29313e-05
6.27386e-05
3.2376e-05
6.11598e-05
4.18973e-05
5.77164e-05
6.27866e-05
5.87331e-05
7.14203e-05
6.88423e-05
6.29255e-05
7.50032e-05
5.45553e-05
7.23268e-05
6.3123e-05
5.02486e-05
6.41495e-05
5.68482e-05
3.56558e-05
6.40549e-05
2.68938e-05
6.37432e-05
2.78045e-05
6.16863e-05
3.84797e-05
5.4759e-05
6.28241e-05
5.37908e-05
7.0136e-05
6.56932e-05
5.69286e-05
7.69822e-05
5.42044e-05
7.5616e-05
6.30223e-05
5.00725e-05
6.67016e-05
5.71529e-05
3.3916e-05
6.83202e-05
2.55421e-05
6.84301e-05
2.69412e-05
6.57306e-05
3.83735e-05
5.71944e-05
6.54789e-05
5.42848e-05
7.42205e-05
6.64881e-05
5.77574e-05
7.58559e-05
4.54082e-05
7.52262e-05
5.99506e-05
4.09347e-05
6.79607e-05
5.51935e-05
2.51623e-05
6.9419e-05
1.66653e-05
6.9573e-05
1.88527e-05
6.53262e-05
3.08516e-05
5.14631e-05
6.46225e-05
4.60652e-05
7.28586e-05
6.1734e-05
4.85572e-05
7.89444e-05
4.46498e-05
7.93571e-05
5.98273e-05
3.97872e-05
7.15073e-05
5.48838e-05
2.31581e-05
7.40203e-05
1.46181e-05
7.44735e-05
1.73285e-05
6.99404e-05
2.97882e-05
5.47782e-05
6.83994e-05
4.59473e-05
7.77061e-05
6.25989e-05
4.87445e-05
7.84088e-05
2.94865e-05
8.21539e-05
5.64064e-05
2.38437e-05
7.66362e-05
5.27649e-05
5.8987e-06
7.86546e-05
-1.73343e-06
7.86807e-05
1.69255e-06
7.15198e-05
1.50078e-05
4.55421e-05
6.81681e-05
3.11953e-05
7.84281e-05
5.65324e-05
3.39207e-05
8.09968e-05
2.95779e-05
8.59994e-05
5.40996e-05
2.35234e-05
8.03796e-05
5.02961e-05
5.27433e-06
8.18559e-05
-2.92765e-06
8.18532e-05
8.00582e-07
7.46282e-05
1.41485e-05
4.94821e-05
7.03415e-05
3.14153e-05
8.2681e-05
5.51153e-05
3.46691e-05
8.46855e-05
1.75933e-06
9.81109e-05
4.8076e-05
-9.09717e-06
9.69006e-05
4.6266e-05
-2.9764e-05
9.50662e-05
-3.46958e-05
9.3677e-05
-2.98526e-05
8.25342e-05
-1.57731e-05
3.55443e-05
7.52694e-05
4.0961e-06
9.12177e-05
4.56336e-05
6.72317e-06
-0.0148491
-0.014222
-0.0137067
-0.013331
-0.0131166
-0.0130995
-0.0132873
-0.0136578
-0.0141971
-0.014863
-0.0156113
-0.0163632
-0.0170264
-0.0174971
-0.0177053
-0.0176595
-0.017376
-0.0168826
-0.0162448
-0.015543
0.00144222
0.00155128
0.00152107
0.00140664
0.00125842
0.00113417
0.000957932
0.000726277
0.000416934
4.56704e-05
-0.000393572
-0.000848551
-0.00122868
-0.00143785
-0.00138589
-0.00103078
-0.000483156
0.000135534
0.000714008
0.00116424
-0.00308626
-0.0027269
-0.00248389
-0.00234206
-0.00234951
-0.00248773
-0.00272968
-0.00303117
-0.00344686
-0.00393921
-0.0045471