/*--------------------------------*- C++ -*----------------------------------*\
| =========                 |                                                 |
| \\      /  F ield         | OpenFOAM: The Open Source CFD Toolbox           |
|  \\    /   O peration     | Version:  2.4.0                                 |
|   \\  /    A nd           | Web:      www.OpenFOAM.org                      |
|    \\/     M anipulation  |                                                 |
\*---------------------------------------------------------------------------*/
FoamFile
{
    version     2.0;
    format      ascii;
    class       volScalarField;
    location    "10";
    object      epsilon;
}
// * * * * * * * * * * * * * * * * * * * * * * * * * * * * * * * * * * * * * //

dimensions      [0 2 -3 0 0 0 0];

internalField   nonuniform List<scalar> 
283312
(
0.00241078
0.0023963
0.00239554
0.00239511
0.00239453
0.00239379
0.0023928
0.00239156
0.0023896
0.00238775
0.00238773
0.00238943
0.00239043
0.00239128
0.00239235
0.00239318
0.00239405
0.0023947
0.00239578
0.00242311
0.00239418
0.00238443
0.00238392
0.00238349
0.00238294
0.00238227
0.00238136
0.00238029
0.00237845
0.00237676
0.00237785
0.0023802
0.00238106
0.0023816
0.00238218
0.00238271
0.00238329
0.00238376
0.0023843
0.00240166
0.0023844
0.00237722
0.00237679
0.00237634
0.00237578
0.00237507
0.00237412
0.00237302
0.00237115
0.00236968
0.00237157
0.00237395
0.00237462
0.00237511
0.00237547
0.00237594
0.00237644
0.00237685
0.00237723
0.0023892
0.00237939
0.00237377
0.00237334
0.00237285
0.00237225
0.0023715
0.00237051
0.00236942
0.00236766
0.00236641
0.00236902
0.00237111
0.00237151
0.00237197
0.00237232
0.00237281
0.00237328
0.00237365
0.00237394
0.00238268
0.00237699
0.00237236
0.00237189
0.00237133
0.0023707
0.00236991
0.00236889
0.00236779
0.00236617
0.00236529
0.00236843
0.00237
0.00237022
0.00237066
0.00237103
0.00237155
0.00237201
0.00237237
0.00237263
0.0023793
0.00237592
0.00237196
0.00237143
0.00237084
0.00237019
0.00236938
0.00236837
0.00236728
0.00236587
0.00236537
0.00236888
0.00236987
0.00236983
0.00237029
0.00237067
0.0023712
0.00237165
0.002372
0.00237225
0.00237752
0.00237537
0.00237198
0.00237143
0.00237083
0.00237015
0.00236932
0.00236836
0.00236728
0.00236615
0.00236606
0.00236926
0.00237016
0.00236979
0.00237027
0.00237065
0.00237119
0.00237164
0.00237201
0.00237228
0.0023766
0.00237568
0.00237276
0.0023722
0.00237155
0.00237079
0.00236994
0.00236903
0.00236802
0.00236724
0.00236751
0.00237049
0.00237095
0.00237041
0.00237087
0.00237127
0.00237183
0.00237232
0.00237275
0.00237304
0.00237669
0.00237701
0.00237434
0.00237377
0.00237302
0.00237213
0.00237129
0.00237045
0.00236957
0.00236911
0.00236951
0.00237213
0.00237218
0.00237181
0.00237217
0.00237261
0.00237321
0.00237381
0.00237427
0.00237459
0.00237772
0.00237857
0.00237614
0.00237557
0.00237482
0.00237393
0.00237309
0.00237232
0.00237156
0.00237133
0.00237176
0.00237391
0.00237388
0.00237357
0.00237386
0.00237433
0.00237495
0.00237556
0.00237601
0.00237633
0.00237904
0.00238026
0.00237806
0.00237757
0.0023769
0.00237611
0.00237531
0.00237459
0.00237389
0.00237379
0.00237417
0.00237596
0.00237584
0.00237565
0.0023759
0.00237635
0.0023769
0.00237742
0.00237784
0.00237816
0.00238055
0.00238215
0.00238014
0.0023797
0.0023791
0.00237838
0.00237763
0.00237695
0.00237631
0.00237624
0.00237636
0.00237826
0.00237798
0.0023778
0.00237797
0.00237842
0.00237892
0.00237939
0.00237982
0.00238015
0.00238229
0.00238425
0.00238239
0.00238198
0.00238142
0.00238072
0.00238001
0.00237938
0.00237882
0.00237887
0.00237911
0.0023806
0.00238032
0.00237991
0.00238003
0.00238048
0.00238101
0.00238149
0.00238195
0.00238231
0.00238424
0.00238652
0.00238477
0.0023844
0.00238386
0.00238317
0.00238249
0.0023819
0.0023814
0.00238155
0.00238193
0.00238308
0.00238258
0.00238207
0.00238216
0.00238262
0.00238319
0.0023837
0.00238423
0.00238461
0.00238637
0.00238892
0.00238726
0.00238693
0.00238641
0.00238572
0.00238509
0.00238452
0.00238404
0.00238427
0.00238478
0.00238552
0.00238489
0.00238429
0.00238435
0.00238482
0.00238545
0.00238601
0.00238661
0.00238703
0.00238865
0.00239144
0.00238982
0.00238954
0.00238906
0.00238836
0.00238777
0.00238723
0.00238673
0.00238707
0.00238773
0.00238812
0.00238699
0.00238655
0.00238659
0.00238709
0.0023878
0.0023884
0.00238908
0.00238953
0.00239103
0.00239405
0.00239245
0.00239223
0.00239178
0.00239106
0.00239053
0.00239
0.00238944
0.00238948
0.00239015
0.00239034
0.00238893
0.00238885
0.00238885
0.00238939
0.00239022
0.00239084
0.00239163
0.00239212
0.00239348
0.00239673
0.0023951
0.00239498
0.00239456
0.00239379
0.00239335
0.00239282
0.00239216
0.00239215
0.002392
0.00239212
0.00239119
0.00239119
0.00239114
0.00239172
0.00239269
0.00239332
0.00239426
0.00239477
0.00239599
0.00239949
0.00239778
0.00239778
0.00239739
0.00239656
0.00239622
0.00239568
0.00239487
0.00239488
0.00239437
0.00239446
0.00239348
0.00239358
0.00239343
0.00239406
0.00239522
0.00239583
0.00239695
0.0023975
0.00239854
0.00240231
0.00240044
0.00240064
0.00240028
0.00239933
0.00239914
0.00239858
0.00239756
0.00239768
0.00239677
0.00239694
0.00239577
0.00239602
0.00239571
0.00239641
0.00239781
0.00239834
0.0023997
0.00240028
0.00240109
0.0024052
0.00240309
0.00240354
0.00240322
0.0024021
0.0024021
0.00240154
0.00240022
0.00240053
0.00239918
0.00239954
0.00239806
0.00239852
0.00239798
0.00239874
0.00240046
0.00240085
0.00240252
0.00240313
0.00240363
0.00240817
0.00240568
0.00240648
0.0024062
0.00240484
0.00240511
0.00240453
0.00240283
0.00240347
0.00240156
0.00240227
0.00240031
0.00240108
0.00240021
0.00240104
0.00240318
0.00240333
0.0024054
0.00240604
0.00240614
0.00241122
0.00240819
0.00240948
0.00240924
0.00240752
0.00240814
0.00240759
0.00240538
0.00240649
0.00240387
0.0024051
0.0024025
0.00240373
0.00240239
0.00240329
0.00240596
0.00240577
0.00240835
0.00240902
0.00240857
0.00241436
0.0024106
0.00241252
0.00241233
0.00241014
0.00241126
0.00241072
0.00240783
0.00240961
0.00240607
0.00240807
0.0024046
0.00240646
0.00240449
0.00240548
0.00240884
0.00240813
0.00241137
0.00241207
0.00241091
0.0024176
0.00241286
0.00241563
0.00241547
0.00241264
0.0024144
0.00241392
0.00241016
0.00241287
0.00240814
0.00241121
0.0024066
0.0024093
0.0024065
0.00240756
0.00241181
0.0024104
0.00241447
0.0024152
0.00241311
0.00242097
0.00241494
0.0024188
0.00241869
0.00241501
0.00241761
0.00241723
0.00241235
0.00241626
0.00241002
0.00241451
0.00240842
0.00241228
0.0024084
0.00240953
0.0024149
0.00241253
0.00241766
0.00241844
0.00241515
0.00242447
0.0024168
0.00242203
0.002422
0.0024172
0.00242088
0.00242063
0.00241431
0.00241981
0.00241168
0.00241801
0.00241004
0.00241539
0.00241015
0.00241133
0.00241812
0.0024145
0.00242095
0.0024218
0.00241697
0.0024281
0.00241837
0.00242534
0.00242539
0.00241914
0.00242422
0.00242416
0.00241603
0.00242354
0.00241307
0.00242173
0.00241143
0.00241868
0.00241174
0.00241293
0.00242148
0.00241625
0.00242435
0.00242528
0.0024185
0.0024319
0.00241962
0.00242875
0.00242891
0.00242082
0.00242764
0.00242784
0.00241746
0.00242746
0.00241413
0.00242567
0.00241252
0.00242217
0.00241312
0.00241428
0.00242503
0.00241774
0.00242787
0.00242892
0.00241971
0.00243587
0.00242049
0.00243224
0.00243257
0.00242215
0.00243114
0.00243167
0.00241851
0.0024316
0.00241482
0.00242986
0.00241328
0.00242587
0.00241424
0.00241533
0.00242878
0.00241892
0.00243152
0.00243275
0.00242053
0.00244001
0.0024209
0.00243586
0.00243642
0.00242305
0.00243476
0.00243573
0.00241914
0.00243596
0.00241509
0.00243432
0.00241365
0.00242984
0.00241508
0.00241602
0.00243275
0.00241971
0.00243535
0.00243678
0.00242086
0.00244434
0.00242077
0.00243961
0.0024405
0.00242348
0.00243851
0.00244002
0.00241926
0.00244053
0.00241487
0.00243904
0.00241359
0.00243408
0.00241554
0.00241628
0.00243699
0.00242005
0.00243935
0.00244106
0.00242065
0.00244887
0.00242002
0.00244348
0.00244488
0.00242331
0.0024424
0.00244457
0.00241878
0.00244533
0.00241411
0.00244403
0.00241303
0.00243863
0.00241553
0.00241599
0.00244154
0.00241983
0.00244353
0.00244565
0.00241985
0.00245361
0.00241854
0.00244754
0.0024496
0.00242242
0.0024465
0.00244946
0.00241762
0.00245039
0.00241277
0.00244932
0.00241193
0.00244354
0.00241498
0.00241509
0.00244645
0.00241894
0.00244794
0.00245061
0.00241842
0.0024586
0.00241627
0.00245181
0.00245474
0.00242054
0.00245081
0.00245472
0.0024156
0.00245569
0.00241072
0.00245488
0.00241016
0.00244886
0.00241373
0.00241341
0.00245178
0.00241723
0.00245263
0.00245603
0.00241622
0.00246389
0.00241312
0.00245634
0.00246039
0.0024176
0.00245538
0.00246044
0.00241273
0.00246128
0.00240803
0.00246079
0.00240779
0.00245471
0.00241178
0.00241092
0.00245766
0.00241465
0.00245761
0.002462
0.00241326
0.00246943
0.00240841
0.00246111
0.00246663
0.00241281
0.00246025
0.00246676
0.0024083
0.00246714
0.00240409
0.00246701
0.00240419
0.00246109
0.00240852
0.00240698
0.0024641
0.00241051
0.00246288
0.00246857
0.00240882
0.00247556
0.00240316
0.00246646
0.00247364
0.00240709
0.00246568
0.00247376
0.00240331
0.00247349
0.0023999
0.00247373
0.00240036
0.00246834
0.00240484
0.0024026
0.00247158
0.00240584
0.00246877
0.00247587
0.00240382
0.00248187
0.00239661
0.00247188
0.00248153
0.00239953
0.00247119
0.00248161
0.00239718
0.00248009
0.00239518
0.00248072
0.00239602
0.00247624
0.00240017
0.00239718
0.0024795
0.00239981
0.00247473
0.00248398
0.00239768
0.00249431
0.00351963
0.00248552
0.00249005
0.00352127
0.00248415
0.00249067
0.00351724
0.00249004
0.00352494
0.00249121
0.0035346
0.0024901
0.00357904
0.0034479
0.002497
0.00350329
0.00248981
0.00249177
0.00349986
0.00241595
0.00240068
0.0023998
0.00239926
0.00239852
0.0023976
0.00239639
0.00239491
0.00239258
0.00239035
0.00239035
0.00239244
0.00239368
0.00239472
0.00239602
0.00239701
0.00239804
0.00239882
0.00239999
0.0024273
0.00239831
0.00238795
0.00238736
0.00238682
0.00238613
0.00238531
0.00238422
0.00238296
0.0023808
0.00237878
0.00238013
0.002383
0.00238406
0.00238471
0.00238539
0.00238599
0.00238665
0.00238718
0.00238776
0.00240511
0.00238779
0.00238014
0.00237964
0.00237909
0.00237838
0.00237751
0.00237637
0.0023751
0.00237291
0.00237116
0.0023735
0.00237643
0.00237724
0.00237782
0.00237822
0.00237872
0.00237926
0.00237971
0.00238012
0.00239209
0.0023822
0.00237622
0.00237571
0.00237511
0.00237435
0.00237344
0.00237226
0.002371
0.00236896
0.00236748
0.00237071
0.0023733
0.00237378
0.00237431
0.00237467
0.00237519
0.00237568
0.00237608
0.0023764
0.00238513
0.0023794
0.00237447
0.00237393
0.00237325
0.00237246
0.00237149
0.00237027
0.002369
0.00236713
0.00236612
0.00237003
0.00237199
0.00237223
0.00237274
0.0023731
0.00237364
0.00237412
0.0023745
0.00237477
0.00238143
0.00237801
0.00237381
0.00237321
0.0023725
0.00237169
0.00237069
0.00236949
0.00236824
0.00236663
0.0023661
0.00237048
0.00237172
0.00237164
0.00237215
0.00237251
0.00237307
0.00237353
0.0023739
0.00237416
0.00237941
0.00237723
0.00237364
0.00237302
0.0023723
0.00237147
0.00237047
0.00236933
0.00236808
0.00236684
0.00236683
0.0023708
0.00237196
0.00237147
0.00237198
0.00237235
0.00237291
0.00237336
0.00237375
0.00237401
0.00237831
0.00237736
0.00237427
0.00237365
0.0023729
0.00237199
0.00237098
0.00236991
0.00236876
0.00236792
0.00236834
0.00237208
0.00237269
0.00237197
0.00237246
0.00237285
0.00237341
0.00237391
0.00237433
0.00237462
0.00237824
0.00237851
0.0023757
0.00237507
0.00237423
0.00237322
0.00237223
0.00237124
0.00237025
0.00236983
0.0023704
0.00237369
0.00237378
0.00237326
0.00237363
0.00237405
0.00237465
0.00237525
0.0023757
0.00237602
0.00237913
0.00237993
0.00237737
0.00237675
0.0023759
0.0023749
0.00237393
0.00237304
0.00237221
0.00237207
0.00237268
0.00237541
0.00237536
0.0023749
0.00237517
0.00237563
0.00237625
0.00237685
0.00237731
0.00237763
0.00238033
0.00238151
0.0023792
0.00237864
0.00237788
0.00237698
0.00237606
0.00237524
0.0023745
0.00237452
0.00237509
0.00237735
0.00237718
0.00237683
0.00237704
0.0023775
0.00237806
0.00237859
0.00237903
0.00237936
0.00238175
0.00238331
0.00238119
0.00238069
0.00238
0.00237917
0.0023783
0.00237755
0.00237689
0.00237696
0.0023772
0.00237959
0.0023792
0.00237884
0.00237898
0.00237943
0.00237996
0.00238046
0.00238091
0.00238126
0.00238339
0.00238532
0.00238336
0.00238289
0.00238224
0.00238144
0.00238064
0.00237994
0.0023794
0.00237958
0.00237995
0.00238183
0.00238145
0.00238083
0.00238093
0.00238139
0.00238194
0.00238245
0.00238295
0.00238333
0.00238526
0.0023875
0.00238566
0.00238524
0.00238462
0.00238383
0.00238308
0.00238244
0.00238196
0.00238225
0.00238279
0.00238425
0.00238361
0.00238289
0.00238295
0.00238342
0.00238402
0.00238457
0.00238513
0.00238553
0.00238731
0.00238983
0.00238807
0.0023877
0.00238711
0.00238633
0.00238563
0.00238504
0.00238459
0.00238498
0.00238569
0.00238663
0.00238584
0.002385
0.00238503
0.00238552
0.0023862
0.00238678
0.00238742
0.00238786
0.00238949
0.00239227
0.00239057
0.00239025
0.0023897
0.00238891
0.00238828
0.00238772
0.00238726
0.00238779
0.00238868
0.00238919
0.00238778
0.00238717
0.00238717
0.00238769
0.00238845
0.00238907
0.0023898
0.00239028
0.00239179
0.00239481
0.00239312
0.00239288
0.00239237
0.00239156
0.002391
0.00239046
0.00238993
0.00239008
0.00239102
0.00239128
0.00238953
0.00238937
0.00238933
0.00238989
0.00239078
0.00239142
0.00239228
0.00239279
0.00239416
0.00239744
0.00239571
0.00239558
0.0023951
0.00239426
0.00239378
0.00239324
0.00239261
0.00239269
0.00239263
0.00239281
0.00239169
0.00239162
0.00239152
0.00239213
0.00239317
0.00239382
0.00239482
0.00239537
0.00239659
0.00240014
0.00239832
0.00239834
0.0023979
0.00239697
0.00239662
0.00239607
0.00239527
0.00239538
0.00239488
0.00239503
0.00239387
0.00239392
0.00239371
0.00239438
0.00239562
0.00239624
0.00239744
0.00239803
0.00239906
0.00240292
0.00240092
0.00240114
0.00240074
0.0023997
0.0023995
0.00239894
0.0023979
0.00239813
0.00239718
0.00239742
0.00239606
0.00239628
0.00239589
0.00239663
0.00239814
0.00239866
0.00240013
0.00240075
0.00240154
0.00240578
0.00240349
0.00240401
0.00240364
0.00240241
0.00240243
0.00240187
0.00240051
0.00240094
0.00239949
0.00239995
0.00239825
0.00239871
0.00239807
0.00239887
0.00240072
0.00240109
0.00240289
0.00240355
0.002404
0.00240872
0.00240601
0.00240692
0.00240659
0.0024051
0.00240541
0.00240484
0.00240305
0.00240385
0.00240177
0.00240261
0.0024004
0.0024012
0.0024002
0.00240108
0.00240337
0.00240348
0.00240571
0.00240641
0.00240643
0.00241175
0.00240845
0.00240988
0.00240959
0.00240773
0.00240842
0.00240788
0.00240554
0.00240684
0.00240396
0.0024054
0.00240248
0.00240379
0.00240227
0.00240323
0.00240611
0.00240583
0.00240861
0.00240934
0.00240878
0.00241489
0.00241078
0.0024129
0.00241266
0.0024103
0.00241151
0.002411
0.00240792
0.00240996
0.00240605
0.00240835
0.00240447
0.00240648
0.00240428
0.00240533
0.00240894
0.00240811
0.00241159
0.00241236
0.00241104
0.00241814
0.00241295
0.00241599
0.00241578
0.00241274
0.00241463
0.00241419
0.00241017
0.00241322
0.002408
0.00241148
0.00240634
0.00240928
0.00240619
0.00240731
0.00241186
0.00241028
0.00241466
0.00241547
0.00241314
0.00242152
0.00241493
0.00241914
0.00241898
0.00241505
0.00241782
0.0024175
0.00241227
0.00241662
0.00240975
0.00241478
0.00240804
0.00241223
0.00240798
0.00240918
0.00241492
0.00241231
0.00241782
0.00241869
0.00241508
0.00242504
0.00241669
0.00242236
0.00242227
0.00241718
0.00242107
0.0024209
0.00241413
0.0024202
0.00241127
0.0024183
0.00240952
0.00241532
0.00240963
0.00241088
0.00241812
0.00241418
0.00242108
0.00242204
0.00241679
0.0024287
0.00241815
0.00242567
0.00242564
0.00241906
0.00242439
0.00242444
0.00241575
0.00242397
0.00241251
0.00242205
0.00241076
0.00241861
0.00241112
0.00241238
0.00242146
0.00241583
0.00242446
0.00242552
0.00241821
0.00243254
0.00241929
0.00242907
0.00242915
0.00242067
0.0024278
0.00242815
0.00241706
0.00242794
0.00241341
0.00242604
0.00241169
0.00242211
0.0024124
0.00241363
0.00242499
0.00241722
0.00242797
0.00242916
0.0024193
0.00243655
0.00242003
0.00243256
0.00243282
0.00242192
0.00243129
0.00243201
0.00241798
0.00243213
0.00241394
0.00243029
0.00241229
0.00242584
0.00241343
0.00241457
0.00242874
0.00241829
0.00243161
0.002433
0.00242
0.00244072
0.0024203
0.00243619
0.00243668
0.00242275
0.00243491
0.0024361
0.00241848
0.00243655
0.00241404
0.00243482
0.00241251
0.00242983
0.00241414
0.00241515
0.0024327
0.00241897
0.00243543
0.00243706
0.00242019
0.0024451
0.00242004
0.00243996
0.00244079
0.00242309
0.00243866
0.00244043
0.00241847
0.00244119
0.00241366
0.0024396
0.00241229
0.0024341
0.00241447
0.00241529
0.00243696
0.0024192
0.00243944
0.00244138
0.00241985
0.00244969
0.00241915
0.00244385
0.00244521
0.00242284
0.00244256
0.00244504
0.00241785
0.00244608
0.00241274
0.00244468
0.00241158
0.00243869
0.00241433
0.00241489
0.00244154
0.00241886
0.00244364
0.00244602
0.0024189
0.00245449
0.00241753
0.00244794
0.00244998
0.00242183
0.00244668
0.00245
0.00241655
0.00245122
0.00241125
0.00245005
0.00241033
0.00244367
0.00241365
0.00241388
0.00244649
0.00241785
0.00244809
0.00245105
0.00241735
0.00245957
0.00241513
0.00245225
0.00245518
0.00241983
0.00245103
0.00245534
0.0024144
0.00245661
0.00240908
0.00245571
0.00240845
0.00244906
0.00241229
0.00241211
0.00245189
0.00241604
0.00245282
0.00245657
0.00241504
0.00246495
0.00241181
0.00245682
0.00246091
0.00241673
0.00245565
0.00246116
0.00241137
0.0024623
0.00240624
0.00246174
0.00240593
0.002455
0.0024102
0.00240951
0.00245786
0.00241331
0.00245786
0.00246264
0.00241196
0.00247061
0.00240716
0.00246169
0.00246728
0.00241198
0.00246062
0.00246761
0.002407
0.0024683
0.00240238
0.0024681
0.00240243
0.00246154
0.00240703
0.00240569
0.00246444
0.00240926
0.00246324
0.00246936
0.00240758
0.00247685
0.00240165
0.00246708
0.0024744
0.00240599
0.0024661
0.00247471
0.00240176
0.00247476
0.00239796
0.00247494
0.00239837
0.0024689
0.0024031
0.0024011
0.00247203
0.00240433
0.0024692
0.00247677
0.00240234
0.00248333
0.00239548
0.00247266
0.00248247
0.00239873
0.00247179
0.00248274
0.00239599
0.00248153
0.00239366
0.00248211
0.00239447
0.00247703
0.00239885
0.00239612
0.00248018
0.00239869
0.00247538
0.0024851
0.00239657
0.002496
0.00352051
0.00248653
0.00249123
0.00352213
0.0024849
0.00249211
0.00351787
0.00249169
0.00352625
0.00249285
0.00353649
0.00249124
0.00358163
0.00344638
0.00249791
0.00350342
0.00249067
0.00249309
0.00349946
0.00242123
0.00240501
0.00240403
0.0024034
0.00240252
0.00240143
0.00239998
0.0023982
0.00239543
0.00239275
0.00239279
0.00239537
0.00239684
0.00239807
0.0023996
0.00240077
0.00240197
0.00240288
0.00240415
0.00243142
0.00240241
0.0023913
0.00239062
0.00239
0.00238918
0.0023882
0.0023869
0.00238544
0.00238289
0.00238048
0.00238216
0.00238567
0.00238692
0.00238769
0.00238845
0.00238912
0.00238986
0.00239045
0.00239108
0.0024084
0.00239099
0.00238278
0.00238219
0.00238154
0.00238069
0.00237967
0.00237833
0.00237685
0.00237428
0.00237219
0.0023751
0.00237867
0.00237962
0.0023803
0.00238073
0.00238126
0.00238185
0.00238233
0.00238277
0.00239474
0.00238477
0.00237833
0.00237774
0.00237703
0.00237613
0.00237504
0.00237367
0.00237221
0.00236982
0.00236805
0.00237207
0.00237524
0.00237579
0.00237639
0.00237676
0.0023773
0.00237782
0.00237824
0.00237857
0.00238729
0.0023815
0.0023762
0.00237557
0.00237478
0.00237383
0.00237268
0.00237126
0.00236979
0.00236762
0.00236642
0.00237128
0.00237369
0.00237394
0.0023745
0.00237485
0.00237542
0.00237592
0.00237631
0.00237658
0.00238323
0.00237976
0.00237525
0.00237456
0.00237373
0.00237276
0.00237158
0.00237018
0.00236873
0.00236689
0.00236628
0.0023717
0.00237327
0.00237311
0.00237367
0.00237402
0.0023746
0.00237507
0.00237544
0.0023757
0.00238093
0.0023787
0.00237486
0.00237415
0.00237332
0.00237233
0.00237114
0.00236981
0.00236839
0.00236699
0.00236703
0.00237194
0.00237341
0.00237275
0.0023733
0.00237366
0.00237423
0.0023747
0.00237509
0.00237534
0.00237961
0.00237861
0.0023753
0.00237461
0.00237374
0.00237268
0.0023715
0.00237025
0.00236894
0.00236804
0.00236861
0.00237326
0.00237406
0.00237311
0.00237362
0.00237399
0.00237458
0.00237508
0.0023755
0.00237577
0.00237937
0.00237958
0.00237659
0.00237588
0.00237494
0.00237378
0.00237263
0.00237149
0.00237038
0.00236998
0.00237073
0.00237485
0.00237498
0.00237428
0.00237465
0.00237506
0.00237567
0.00237626
0.00237672
0.00237703
0.00238011
0.00238085
0.00237812
0.00237743
0.00237648
0.00237534
0.00237423
0.0023732
0.00237228
0.00237225
0.00237307
0.00237649
0.00237645
0.00237578
0.00237604
0.00237649
0.00237712
0.00237773
0.00237818
0.0023785
0.00238118
0.00238231
0.00237985
0.00237921
0.00237836
0.00237733
0.00237627
0.00237534
0.00237457
0.00237473
0.00237551
0.00237836
0.00237814
0.00237758
0.00237777
0.00237823
0.0023788
0.00237933
0.00237978
0.00238011
0.00238248
0.002384
0.00238175
0.00238117
0.00238039
0.00237944
0.00237845
0.00237762
0.00237697
0.00237715
0.00237753
0.00238053
0.00238002
0.00237947
0.00237957
0.00238003
0.00238058
0.00238108
0.00238156
0.00238191
0.00238403
0.00238591
0.00238383
0.0023833
0.00238256
0.00238165
0.00238073
0.00237999
0.00237946
0.00237978
0.00238032
0.00238268
0.00238222
0.00238134
0.00238139
0.00238187
0.00238245
0.00238297
0.00238349
0.00238388
0.00238581
0.00238801
0.00238606
0.00238557
0.00238487
0.00238398
0.00238314
0.00238247
0.00238203
0.00238246
0.00238322
0.00238506
0.00238428
0.00238328
0.0023833
0.00238379
0.00238442
0.00238499
0.00238557
0.00238599
0.00238776
0.00239025
0.0023884
0.00238797
0.00238731
0.00238643
0.00238566
0.00238505
0.00238465
0.0023852
0.00238617
0.00238739
0.00238643
0.00238529
0.00238527
0.00238579
0.00238649
0.0023871
0.00238777
0.00238823
0.00238987
0.00239262
0.00239083
0.00239047
0.00238984
0.00238897
0.00238827
0.00238771
0.00238732
0.00238803
0.00238925
0.00238993
0.0023882
0.00238737
0.00238731
0.00238785
0.00238865
0.0023893
0.00239007
0.00239057
0.00239208
0.0023951
0.00239332
0.00239304
0.00239247
0.00239157
0.00239096
0.00239043
0.00238996
0.0023902
0.00239148
0.00239186
0.00238973
0.00238947
0.00238937
0.00238996
0.00239089
0.00239156
0.00239246
0.002393
0.00239438
0.00239766
0.00239585
0.00239569
0.00239516
0.00239422
0.00239372
0.00239319
0.0023926
0.00239276
0.00239281
0.00239309
0.00239178
0.00239163
0.00239146
0.00239209
0.00239319
0.00239387
0.00239493
0.00239551
0.00239673
0.00240032
0.0023984
0.0023984
0.00239791
0.0023969
0.00239652
0.00239599
0.00239521
0.00239541
0.00239495
0.00239518
0.00239386
0.00239384
0.00239356
0.00239425
0.00239557
0.0023962
0.00239748
0.0023981
0.00239913
0.00240305
0.00240094
0.00240117
0.00240072
0.00239958
0.00239938
0.00239883
0.0023978
0.00239811
0.00239716
0.00239747
0.00239595
0.00239611
0.00239565
0.00239641
0.00239801
0.00239855
0.0024001
0.00240077
0.00240154
0.00240588
0.00240345
0.002404
0.00240359
0.00240226
0.00240229
0.00240173
0.00240036
0.00240089
0.00239937
0.00239992
0.00239804
0.00239846
0.00239773
0.00239856
0.00240052
0.00240089
0.0024028
0.00240351
0.00240393
0.0024088
0.00240591
0.00240688
0.00240651
0.0024049
0.00240524
0.00240469
0.00240286
0.00240376
0.00240155
0.00240252
0.0024001
0.00240088
0.00239977
0.00240068
0.00240312
0.00240321
0.00240558
0.00240632
0.00240629
0.00241181
0.00240829
0.00240982
0.00240949
0.00240749
0.00240823
0.00240771
0.00240529
0.00240672
0.00240365
0.00240525
0.00240208
0.00240341
0.00240175
0.00240275
0.0024058
0.00240548
0.00240843
0.00240922
0.00240856
0.00241494
0.00241054
0.00241281
0.00241253
0.00241002
0.0024113
0.00241081
0.0024076
0.00240982
0.00240564
0.00240816
0.00240397
0.00240604
0.00240367
0.00240476
0.00240858
0.00240767
0.00241137
0.0024122
0.00241075
0.00241819
0.00241264
0.00241588
0.00241563
0.00241242
0.0024144
0.002414
0.00240979
0.00241308
0.00240749
0.00241126
0.00240573
0.0024088
0.00240549
0.00240666
0.00241147
0.00240976
0.0024144
0.00241529
0.00241278
0.00242158
0.00241455
0.00241902
0.00241882
0.00241468
0.00241758
0.0024173
0.00241181
0.00241649
0.00240913
0.00241456
0.00240731
0.00241173
0.0024072
0.00240845
0.0024145
0.00241172
0.00241754
0.00241849
0.00241464
0.00242512
0.00241622
0.00242223
0.0024221
0.00241676
0.00242082
0.00242071
0.00241359
0.00242008
0.00241054
0.00241808
0.00240868
0.00241481
0.00240877
0.00241006
0.00241767
0.00241351
0.00242078
0.00242183
0.00241626
0.00242881
0.0024176
0.00242554
0.00242547
0.00241859
0.00242414
0.00242427
0.00241512
0.00242389
0.00241166
0.00242186
0.0024098
0.0024181
0.00241019
0.00241147
0.002421
0.00241507
0.00242415
0.00242531
0.00241759
0.00243268
0.00241865
0.00242895
0.00242899
0.00242014
0.00242755
0.002428
0.00241634
0.0024279
0.00241244
0.00242589
0.00241061
0.00242161
0.0024114
0.00241264
0.00242453
0.00241638
0.00242765
0.00242897
0.00241859
0.00243673
0.00241929
0.00243245
0.00243266
0.00242135
0.00243104
0.00243189
0.00241718
0.00243214
0.00241284
0.00243019
0.00241109
0.00242536
0.00241233
0.0024135
0.00242827
0.00241737
0.00243129
0.00243283
0.00241919
0.00244095
0.00241947
0.0024361
0.00243654
0.00242212
0.00243467
0.00243602
0.00241758
0.00243663
0.00241282
0.00243478
0.00241119
0.00242937
0.00241295
0.002414
0.00243226
0.00241797
0.00243513
0.00243692
0.00241929
0.00244539
0.00241911
0.00243988
0.00244069
0.00242242
0.00243844
0.00244041
0.00241747
0.00244134
0.00241231
0.00243964
0.00241085
0.00243369
0.00241319
0.00241406
0.00243654
0.00241811
0.00243915
0.00244128
0.00241885
0.00245004
0.00241812
0.00244381
0.00244515
0.00242212
0.00244237
0.00244507
0.00241676
0.0024463
0.00241129
0.0024448
0.00241003
0.00243833
0.00241297
0.0024136
0.00244116
0.0024177
0.00244338
0.00244598
0.0024178
0.00245492
0.00241641
0.00244793
0.00244998
0.00242104
0.00244652
0.0024501
0.00241537
0.00245154
0.0024097
0.00245027
0.0024087
0.00244338
0.00241221
0.00241253
0.00244617
0.00241663
0.00244787
0.00245109
0.00241617
0.00246007
0.00241394
0.0024523
0.00245525
0.00241898
0.00245092
0.00245553
0.00241316
0.00245702
0.00240746
0.00245604
0.00240675
0.00244886
0.0024108
0.00241073
0.00245165
0.00241478
0.00245267
0.0024567
0.0024138
0.00246555
0.00241056
0.00245694
0.00246107
0.00241582
0.00245561
0.00246145
0.00241007
0.00246283
0.00240458
0.00246217
0.0024042
0.00245491
0.00240867
0.00240812
0.00245772
0.00241202
0.00245779
0.00246289
0.0024107
0.00247133
0.00240595
0.00246189
0.00246756
0.0024111
0.00246066
0.00246802
0.00240575
0.00246895
0.00240078
0.00246868
0.00240077
0.00246158
0.00240557
0.00240439
0.00246444
0.00240802
0.00246328
0.00246974
0.00240637
0.00247768
0.00240042
0.00246737
0.0024748
0.00240508
0.00246625
0.00247525
0.0024005
0.00247553
0.00239639
0.00247566
0.00239675
0.00246909
0.00240167
0.00239985
0.00247217
0.00240311
0.00246935
0.0024773
0.00240114
0.0024843
0.00239456
0.0024731
0.00248302
0.00239805
0.00247207
0.00248342
0.002395
0.00248243
0.0023924
0.00248296
0.00239317
0.00247739
0.00239772
0.00239517
0.00248048
0.00239773
0.00247567
0.00248576
0.00239563
0.00249722
0.00352073
0.00248723
0.00249202
0.0035224
0.00248539
0.0024931
0.00351803
0.00249288
0.003527
0.00249404
0.00353769
0.00249199
0.00358324
0.00344479
0.00249852
0.00350305
0.0024913
0.002494
0.00349859
0.0024273
0.00240995
0.00240884
0.00240813
0.00240711
0.00240582
0.00240411
0.00240203
0.00239873
0.00239552
0.0023956
0.00239875
0.0024005
0.00240193
0.00240371
0.00240507
0.00240645
0.00240751
0.00240889
0.00243613
0.00240707
0.00239508
0.0023943
0.00239358
0.00239263
0.00239149
0.00238998
0.00238827
0.00238528
0.0023824
0.00238448
0.00238875
0.00239021
0.00239111
0.00239196
0.0023927
0.00239351
0.00239416
0.00239484
0.00241213
0.00239461
0.00238571
0.00238503
0.00238427
0.00238328
0.00238209
0.00238054
0.00237883
0.00237581
0.00237332
0.00237691
0.00238125
0.00238235
0.00238312
0.00238358
0.00238414
0.00238476
0.00238529
0.00238575
0.00239769
0.00238764
0.00238066
0.00237998
0.00237915
0.00237809
0.00237683
0.00237524
0.00237356
0.00237078
0.00236866
0.00237361
0.00237748
0.00237808
0.00237876
0.00237912
0.00237968
0.00238023
0.00238066
0.002381
0.00238969
0.00238383
0.00237809
0.00237736
0.00237644
0.00237533
0.00237399
0.00237235
0.00237066
0.00236815
0.0023667
0.00237269
0.00237564
0.00237588
0.00237649
0.00237684
0.00237742
0.00237793
0.00237833
0.0023786
0.00238521
0.00238168
0.0023768
0.00237601
0.00237506
0.00237391
0.00237253
0.00237092
0.00236926
0.00236716
0.00236642
0.00237307
0.00237503
0.00237478
0.00237538
0.00237571
0.00237631
0.00237679
0.00237716
0.0023774
0.0023826
0.00238031
0.00237614
0.00237534
0.00237438
0.00237322
0.00237184
0.0023703
0.00236867
0.00236711
0.00236716
0.0023732
0.00237506
0.0023742
0.00237478
0.00237511
0.00237572
0.00237618
0.00237656
0.0023768
0.00238103
0.00237996
0.00237639
0.0023756
0.00237461
0.00237339
0.00237201
0.00237057
0.00236908
0.0023681
0.00236881
0.00237457
0.00237561
0.00237437
0.00237492
0.00237526
0.00237586
0.00237636
0.00237678
0.00237703
0.00238059
0.00238074
0.00237751
0.00237671
0.00237564
0.00237433
0.002373
0.00237169
0.00237043
0.00237006
0.00237102
0.00237614
0.00237634
0.0023754
0.00237578
0.00237617
0.00237679
0.00237738
0.00237782
0.00237812
0.00238116
0.00238183
0.00237891
0.00237812
0.00237706
0.00237578
0.0023745
0.00237332
0.00237231
0.00237237
0.00237344
0.00237771
0.00237766
0.00237678
0.00237701
0.00237745
0.00237809
0.00237869
0.00237914
0.00237944
0.00238209
0.00238316
0.00238052
0.0023798
0.00237883
0.00237766
0.00237646
0.00237542
0.00237459
0.00237489
0.00237592
0.0023795
0.00237921
0.00237844
0.00237859
0.00237904
0.00237962
0.00238016
0.00238061
0.00238093
0.00238327
0.00238473
0.00238233
0.00238167
0.00238077
0.0023797
0.00237857
0.00237766
0.00237699
0.00237732
0.00237788
0.00238163
0.00238099
0.00238019
0.00238026
0.00238071
0.00238127
0.00238179
0.00238226
0.00238261
0.00238471
0.00238654
0.00238433
0.00238371
0.00238287
0.00238184
0.00238081
0.00238001
0.0023795
0.00237997
0.00238073
0.00238369
0.00238312
0.00238195
0.00238195
0.00238243
0.00238302
0.00238356
0.00238409
0.00238448
0.00238639
0.00238855
0.00238648
0.00238592
0.00238512
0.00238412
0.00238318
0.00238248
0.00238208
0.00238268
0.0023837
0.00238603
0.00238509
0.00238377
0.00238373
0.00238424
0.00238489
0.00238547
0.00238607
0.0023865