/*--------------------------------*- C++ -*----------------------------------*\
| =========                 |                                                 |
| \\      /  F ield         | OpenFOAM: The Open Source CFD Toolbox           |
|  \\    /   O peration     | Version:  2.4.0                                 |
|   \\  /    A nd           | Web:      www.OpenFOAM.org                      |
|    \\/     M anipulation  |                                                 |
\*---------------------------------------------------------------------------*/
FoamFile
{
    version     2.0;
    format      ascii;
    class       volScalarField;
    location    "10";
    object      k;
}
// * * * * * * * * * * * * * * * * * * * * * * * * * * * * * * * * * * * * * //

dimensions      [0 2 -2 0 0 0 0];

internalField   nonuniform List<scalar> 
283312
(
0.000724555
0.000722519
0.000722376
0.00072228
0.00072215
0.000721994
0.000721788
0.000721543
0.000721172
0.000720826
0.000720836
0.000721133
0.000721274
0.000721407
0.000721609
0.000721782
0.00072197
0.000722114
0.000722404
0.000728523
0.000720959
0.000719622
0.000719529
0.000719441
0.000719327
0.000719192
0.000719012
0.000718804
0.00071847
0.000718167
0.000718374
0.000718773
0.000718874
0.000718957
0.000719065
0.000719181
0.000719311
0.00071942
0.000719566
0.000723508
0.000718712
0.000717746
0.000717669
0.000717582
0.000717468
0.000717325
0.000717139
0.000716929
0.000716603
0.000716358
0.000716719
0.000717091
0.000717147
0.000717218
0.000717291
0.000717396
0.000717511
0.00071761
0.000717711
0.000720453
0.000717523
0.000716775
0.000716698
0.000716602
0.000716482
0.00071633
0.00071614
0.000715933
0.000715639
0.000715452
0.000715946
0.000716259
0.00071625
0.000716307
0.000716378
0.000716489
0.000716598
0.000716688
0.000716767
0.000718782
0.000716903
0.000716286
0.000716199
0.000716089
0.000715962
0.000715802
0.000715606
0.000715402
0.00071515
0.00071504
0.000715631
0.000715846
0.000715789
0.000715843
0.000715921
0.000716037
0.000716143
0.000716228
0.000716296
0.000717841
0.000716556
0.000716026
0.000715922
0.000715804
0.000715675
0.000715512
0.000715322
0.000715127
0.000714924
0.000714884
0.000715528
0.000715649
0.000715538
0.000715598
0.000715677
0.000715794
0.000715894
0.000715977
0.000716041
0.000717264
0.000716302
0.000715854
0.000715743
0.000715624
0.000715491
0.000715328
0.00071515
0.000714964
0.000714818
0.000714846
0.00071539
0.000715537
0.000715366
0.000715429
0.000715508
0.00071562
0.000715718
0.000715806
0.000715874
0.000716882
0.000716243
0.000715866
0.000715757
0.000715625
0.000715472
0.000715306
0.000715143
0.000714976
0.000714887
0.000714982
0.000715486
0.000715556
0.000715348
0.000715411
0.00071549
0.000715604
0.000715714
0.000715813
0.000715888
0.000716744
0.000716431
0.000716084
0.000715968
0.000715813
0.000715628
0.000715466
0.000715321
0.00071518
0.000715151
0.00071527
0.000715705
0.000715662
0.000715516
0.00071557
0.000715655
0.000715782
0.00071592
0.000716025
0.000716107
0.000716845
0.000716668
0.00071635
0.000716234
0.000716075
0.000715889
0.000715731
0.0007156
0.000715478
0.000715494
0.000715612
0.000715966
0.000715905
0.000715772
0.000715818
0.000715911
0.000716045
0.000716186
0.000716289
0.000716367
0.000717008
0.000716928
0.000716646
0.000716543
0.000716403
0.00071624
0.000716092
0.000715971
0.000715854
0.000715881
0.000715994
0.000716289
0.000716218
0.000716111
0.000716149
0.00071624
0.000716359
0.000716475
0.00071657
0.000716647
0.000717213
0.000717227
0.000716976
0.000716884
0.000716759
0.000716612
0.000716476
0.000716362
0.000716251
0.000716271
0.000716343
0.000716667
0.000716571
0.000716466
0.000716489
0.000716577
0.000716686
0.000716789
0.000716882
0.00071696
0.000717466
0.00071757
0.000717344
0.000717259
0.00071714
0.000717
0.000716873
0.000716768
0.00071667
0.000716716
0.000716811
0.00071706
0.000716982
0.000716813
0.000716824
0.000716912
0.000717024
0.000717129
0.000717228
0.00071731
0.000717768
0.000717951
0.000717744
0.000717665
0.000717551
0.000717413
0.000717292
0.000717194
0.000717106
0.000717171
0.000717292
0.000717482
0.000717359
0.000717167
0.000717172
0.000717262
0.000717383
0.000717495
0.000717605
0.000717691
0.000718112
0.000718362
0.000718169
0.000718097
0.000717988
0.00071785
0.000717735
0.000717642
0.000717556
0.000717633
0.000717776
0.000717893
0.000717746
0.000717534
0.000717535
0.000717628
0.000717761
0.000717884
0.000718007
0.000718098
0.000718487
0.000718796
0.000718613
0.000718549
0.000718445
0.000718308
0.000718199
0.000718109
0.000718019
0.000718108
0.000718282
0.000718337
0.000718063
0.000717913
0.00071791
0.000718008
0.000718158
0.00071829
0.000718429
0.000718527
0.000718888
0.000719249
0.000719071
0.000719017
0.00071892
0.000718781
0.00071868
0.000718591
0.000718486
0.000718481
0.000718662
0.000718683
0.000718348
0.0007183
0.000718291
0.000718398
0.000718568
0.000718709
0.000718869
0.000718973
0.000719308
0.000719718
0.000719539
0.000719499
0.000719407
0.000719264
0.000719174
0.000719083
0.00071896
0.000718937
0.000718905
0.000718911
0.000718729
0.000718697
0.000718679
0.000718796
0.000718992
0.000719139
0.000719324
0.000719435
0.000719742
0.000720201
0.000720012
0.000719993
0.000719907
0.000719755
0.00071968
0.000719585
0.000719435
0.000719412
0.000719312
0.000719303
0.000719119
0.000719102
0.00071907
0.000719197
0.000719427
0.000719576
0.000719794
0.000719911
0.000720187
0.000720696
0.000720487
0.000720496
0.000720418
0.000720249
0.000720195
0.000720097
0.00071991
0.000719897
0.000719731
0.000719725
0.000719513
0.000719518
0.000719461
0.0007196
0.000719872
0.000720017
0.000720276
0.000720401
0.000720636
0.000721203
0.000720959
0.000721009
0.000720938
0.000720745
0.00072072
0.00072062
0.000720384
0.000720393
0.000720153
0.00072017
0.000719908
0.000719945
0.000719851
0.000720002
0.000720329
0.000720459
0.000720772
0.000720903
0.000721085
0.000721722
0.000721425
0.000721532
0.000721468
0.000721238
0.000721255
0.00072115
0.000720849
0.000720903
0.000720574
0.000720636
0.000720301
0.000720381
0.000720234
0.0007204
0.000720797
0.000720898
0.000721279
0.000721417
0.000721531
0.000722253
0.000721879
0.000722064
0.000722008
0.000721723
0.000721795
0.000721691
0.000721307
0.000721425
0.000720983
0.00072112
0.000720684
0.000720832
0.000720609
0.000720787
0.000721276
0.000721331
0.000721798
0.000721942
0.000721965
0.0007228
0.000722315
0.000722605
0.000722558
0.000722199
0.000722349
0.000722245
0.000721749
0.000721964
0.000721377
0.000721627
0.000721055
0.000721296
0.000720971
0.000721165
0.000721771
0.000721753
0.000722331
0.000722481
0.000722386
0.00072336
0.000722727
0.000723156
0.000723119
0.000722654
0.00072291
0.000722812
0.000722172
0.000722524
0.000721751
0.00072216
0.000721409
0.000721777
0.000721317
0.000721524
0.000722281
0.000722159
0.000722879
0.000723034
0.000722783
0.000723941
0.000723109
0.00072372
0.000723693
0.000723088
0.000723483
0.000723396
0.000722571
0.000723105
0.000722093
0.000722718
0.000721736
0.000722281
0.000721642
0.000721862
0.00072281
0.000722543
0.000723444
0.000723604
0.000723152
0.000724542
0.000723451
0.000724296
0.000724282
0.00072349
0.000724068
0.000723996
0.000722932
0.00072371
0.000722399
0.000723309
0.000722028
0.000722805
0.000721941
0.000722169
0.000723362
0.000722898
0.000724026
0.000724196
0.000723484
0.000725163
0.000723743
0.000724887
0.000724886
0.000723848
0.000724664
0.000724619
0.000723251
0.000724346
0.000722658
0.000723936
0.000722281
0.00072336
0.000722209
0.000722439
0.000723938
0.000723216
0.000724631
0.000724808
0.000723764
0.000725813
0.000723975
0.000725495
0.000725513
0.000724158
0.000725279
0.000725268
0.000723518
0.000725012
0.000722859
0.000724601
0.000722481
0.00072395
0.000722439
0.000722666
0.000724548
0.000723487
0.00072526
0.00072545
0.000723986
0.000726492
0.000724135
0.000726121
0.000726168
0.000724404
0.000725911
0.000725945
0.000723716
0.000725715
0.000722994
0.00072531
0.000722623
0.000724578
0.000722619
0.000722834
0.000725195
0.0007237
0.000725914
0.000726125
0.000724136
0.000727201
0.000724208
0.000726775
0.000726856
0.00072457
0.000726566
0.000726662
0.000723835
0.000726459
0.000723051
0.000726069
0.000722695
0.000725255
0.000722745
0.000722936
0.000725883
0.000723841
0.000726605
0.000726839
0.000724194
0.000727949
0.000724179
0.000727456
0.000727588
0.000724645
0.000727251
0.000727423
0.00072386
0.000727244
0.000723014
0.000726878
0.000722683
0.000725988
0.0007228
0.000722957
0.000726628
0.000723896
0.000727335
0.0007276
0.00072415
0.000728739
0.000724025
0.000728167
0.000728374
0.000724605
0.000727968
0.000728235
0.000723768
0.000728079
0.000722874
0.000727747
0.000722576
0.000726785
0.000722767
0.000722877
0.000727435
0.000723842
0.000728104
0.000728421
0.000723991
0.000729578
0.00072373
0.000728919
0.000729224
0.000724422
0.00072873
0.000729113
0.000723542
0.000728973
0.000722615
0.000728685
0.000722362
0.000727664
0.000722633
0.000722681
0.000728321
0.000723657
0.000728925
0.000729315
0.000723714
0.000730477
0.00072328
0.000729725
0.000730155
0.000724051
0.000729543
0.000730065
0.000723148
0.000729927
0.000722214
0.000729696
0.000722015
0.000728637
0.000722369
0.000722341
0.0007293
0.000723312
0.000729809
0.0007303
0.000723283
0.000731451
0.000722655
0.000730592
0.000731185
0.000723473
0.000730417
0.00073111
0.000722579
0.00073096
0.000721678
0.0007308
0.00072154
0.00072973
0.000721971
0.000721848
0.000730398
0.000722789
0.000730761
0.000731391
0.000722693
0.000732505
0.000721742
0.000731532
0.000732336
0.000722556
0.000731368
0.000732278
0.000721721
0.000732079
0.000720903
0.000732002
0.000720836
0.000730959
0.000721345
0.0007211
0.000731629
0.000721978
0.000731792
0.000732607
0.000721822
0.000733696
0.000720685
0.000732585
0.000733631
0.000721429
0.000732429
0.000733576
0.000720715
0.000733328
0.000720036
0.000733333
0.000720045
0.000732373
0.000720614
0.000720239
0.000733072
0.000721028
0.000732943
0.000733963
0.000720809
0.000734982
0.000719576
0.000733705
0.00073511
0.00072015
0.000733553
0.000735056
0.000719683
0.000734677
0.000719252
0.000734766
0.000719343
0.000733961
0.000719919
0.000719411
0.000734663
0.000720037
0.000734162
0.000735494
0.000719766
0.000737368
0.000943831
0.000736502
0.000736799
0.000944302
0.000736169
0.00073691
0.00094376
0.000736782
0.000945103
0.000736989
0.000946721
0.000736881
0.00095447
0.000930432
0.000738201
0.000940512
0.000737248
0.000737016
0.00094042
0.000725412
0.000723299
0.000723142
0.000723028
0.000722871
0.00072268
0.000722432
0.00072214
0.000721699
0.000721284
0.000721305
0.000721677
0.000721849
0.000722006
0.000722246
0.000722452
0.000722674
0.000722845
0.000723156
0.000729257
0.000721636
0.000720239
0.000720134
0.000720029
0.000719891
0.000719727
0.000719512
0.000719268
0.000718877
0.000718517
0.00071878
0.000719272
0.00071939
0.000719487
0.000719611
0.000719743
0.00071989
0.000720014
0.000720173
0.000724106
0.000719259
0.000718246
0.000718157
0.000718052
0.000717913
0.00071774
0.000717521
0.000717277
0.000716896
0.000716607
0.000717061
0.00071752
0.000717583
0.000717663
0.000717744
0.00071786
0.000717986
0.000718096
0.000718206
0.000720945
0.000717968
0.000717182
0.000717093
0.000716978
0.00071683
0.000716648
0.000716424
0.000716186
0.000715847
0.000715628
0.000716251
0.000716639
0.00071662
0.000716682
0.000716757
0.000716876
0.000716993
0.000717091
0.000717176
0.00071919
0.000717275
0.000716625
0.000716525
0.000716395
0.00071624
0.000716049
0.000715819
0.000715584
0.000715298
0.000715176
0.000715921
0.00071619
0.000716107
0.000716164
0.000716243
0.000716366
0.000716479
0.000716571
0.000716642
0.000718185
0.00071687
0.000716309
0.000716194
0.000716056
0.000715899
0.000715704
0.00071548
0.000715256
0.000715034
0.000715001
0.000715813
0.000715967
0.000715815
0.000715877
0.000715956
0.000716079
0.000716185
0.000716272
0.000716338
0.000717559
0.000716572
0.000716097
0.000715975
0.000715837
0.000715677
0.000715482
0.000715273
0.00071506
0.00071491
0.000714966
0.000715647
0.000715839
0.000715611
0.000715675
0.000715753
0.000715873
0.000715974
0.000716066
0.000716134
0.000717139
0.000716477
0.000716078
0.000715957
0.000715809
0.00071563
0.000715435
0.000715244
0.000715054
0.000714972
0.000715111
0.000715746
0.000715844
0.000715568
0.000715631
0.000715709
0.000715827
0.000715941
0.000716042
0.000716117
0.000716968
0.000716633
0.000716267
0.00071614
0.000715968
0.000715761
0.000715573
0.000715403
0.000715245
0.000715239
0.000715406
0.000715957
0.000715908
0.000715711
0.000715765
0.000715848
0.000715979
0.000716118
0.000716225
0.000716307
0.00071704
0.000716844
0.000716508
0.000716381
0.000716206
0.000716
0.000715818
0.000715666
0.000715535
0.000715586
0.000715754
0.000716205
0.000716127
0.000715945
0.000715986
0.000716078
0.000716216
0.000716358
0.000716463
0.000716542
0.00071718
0.000717083
0.000716785
0.00071667
0.000716515
0.000716331
0.000716161
0.000716023
0.000715901
0.000715971
0.000716134
0.000716511
0.000716415
0.000716257
0.00071629
0.000716381
0.000716504
0.000716625
0.000716723
0.000716801
0.000717365
0.000717365
0.000717099
0.000716995
0.000716854
0.000716687
0.000716532
0.000716405
0.000716293
0.000716354
0.000716468
0.000716878
0.000716748
0.000716588
0.000716606
0.000716696
0.00071681
0.000716918
0.000717016
0.000717097
0.000717602
0.000717693
0.000717452
0.000717356
0.000717222
0.000717063
0.000716919
0.000716805
0.00071671
0.000716795
0.000716937
0.000717252
0.00071715
0.000716915
0.00071692
0.000717011
0.00071713
0.00071724
0.000717345
0.000717429
0.000717888
0.000718058
0.000717838
0.000717749
0.000717621
0.000717466
0.00071733
0.000717227
0.000717142
0.000717249
0.000717423
0.000717664
0.000717511
0.00071725
0.000717249
0.000717342
0.000717471
0.000717589
0.000717705
0.000717794
0.000718215
0.000718455
0.00071825
0.000718169
0.000718047
0.000717894
0.000717767
0.00071767
0.000717589
0.000717712
0.000717914
0.000718066
0.000717884
0.0007176
0.000717594
0.000717691
0.000717832
0.000717961
0.000718091
0.000718186
0.000718576
0.000718877
0.000718682
0.000718611
0.000718495
0.000718342
0.000718225
0.000718132
0.000718049
0.000718186
0.000718432
0.000718507
0.00071816
0.000717963
0.000717951
0.000718054
0.000718212
0.000718351
0.000718498
0.0007186
0.000718962
0.000719319
0.000719129
0.00071907
0.000718961
0.000718807
0.0007187
0.000718609
0.00071851
0.000718524
0.000718782
0.000718818
0.000718396
0.000718333
0.000718316
0.000718428
0.000718608
0.000718755
0.000718924
0.000719033
0.000719369
0.000719778
0.000719586
0.000719543
0.000719441
0.000719283
0.000719188
0.000719096
0.000718977
0.000718969
0.000718953
0.000718973
0.000718759
0.000718714
0.000718687
0.000718809
0.000719017
0.00071917
0.000719366
0.000719483
0.000719791
0.000720253
0.000720049
0.000720029
0.000719934
0.000719766
0.000719689
0.000719593
0.000719444
0.000719435
0.00071934
0.000719342
0.00071913
0.000719105
0.000719062
0.000719195
0.000719439
0.000719593
0.000719824
0.000719948
0.000720223
0.000720741
0.000720514
0.000720526
0.000720438
0.000720254
0.000720199
0.0007201
0.000719911
0.000719912
0.000719743
0.000719748
0.000719508
0.000719506
0.000719437
0.000719583
0.000719872
0.00072002
0.000720296
0.000720428
0.00072066
0.000721243
0.000720977
0.000721033
0.000720953
0.000720743
0.00072072
0.000720618
0.000720376
0.000720402
0.000720149
0.00072018
0.000719887
0.00071992
0.000719811
0.000719969
0.000720317
0.000720448
0.000720782
0.000720921
0.000721098
0.000721758
0.000721432
0.00072155
0.000721478
0.000721229
0.00072125
0.000721145
0.000720832
0.000720906
0.000720554
0.000720635
0.000720263
0.000720345
0.000720178
0.000720352
0.000720775
0.000720874
0.00072128
0.000721427
0.000721532
0.000722287
0.000721875
0.000722078
0.000722014
0.000721707
0.000721787
0.000721684
0.000721281
0.000721424
0.000720947
0.000721111
0.00072063
0.000720786
0.000720537
0.000720725
0.000721246
0.000721293
0.000721792
0.000721947
0.000721955
0.000722832
0.000722301
0.000722616
0.000722561
0.000722176
0.000722338
0.000722236
0.000721713
0.000721962
0.000721324
0.000721613
0.000720984
0.000721241
0.000720884
0.000721088
0.000721733
0.000721702
0.000722319
0.00072248
0.000722363
0.000723393
0.000722701
0.000723165
0.000723119
0.000722624
0.000722896
0.000722803
0.000722126
0.000722522
0.000721681
0.000722143
0.00072132
0.000721716
0.000721215
0.000721433
0.000722236
0.000722094
0.000722862
0.000723029
0.000722747
0.000723976
0.00072307
0.000723727
0.000723691
0.000723051
0.000723468
0.000723388
0.000722514
0.000723105
0.000722005
0.000722701
0.000721628
0.000722215
0.000721526
0.000721756
0.000722761
0.000722465
0.000723423
0.000723598
0.000723103
0.00072458
0.000723399
0.000724303
0.000724279
0.000723446
0.000724051
0.00072399
0.000722862
0.000723714
0.000722292
0.000723294
0.000721901
0.000722737
0.00072181
0.00072205
0.000723309
0.000722808
0.000724002
0.000724188
0.000723421
0.000725206
0.000723676
0.000724894
0.000724884
0.000723796
0.000724647
0.000724616
0.000723167
0.000724356
0.000722532
0.000723927
0.000722134
0.000723292
0.000722065
0.000722306
0.000723883
0.000723112
0.000724605
0.000724802
0.000723686
0.000725862
0.000723894
0.000725504
0.000725512
0.000724099
0.000725263
0.00072527
0.00072342
0.00072503
0.000722713
0.000724599
0.000722315
0.000723885
0.000722282
0.000722518
0.000724492
0.00072337
0.000725234
0.000725446
0.000723894
0.000726549
0.000724039
0.000726133
0.000726169
0.000724337
0.000725896
0.000725953
0.000723603
0.000725742
0.000722827
0.000725317
0.000722437
0.000724517
0.00072245
0.000722674
0.00072514
0.00072357
0.00072589
0.000726126
0.000724028
0.000727266
0.000724096
0.00072679
0.000726862
0.000724494
0.000726554
0.000726679
0.000723707
0.000726498
0.000722864
0.000726087
0.000722489
0.0007252
0.000722561
0.000722763
0.000725832
0.000723698
0.000726584
0.000726846
0.000724071
0.000728024
0.00072405
0.000727477
0.000727601
0.000724562
0.000727243
0.00072745
0.000723717
0.000727296
0.000722809
0.000726909
0.000722459
0.000725941
0.000722602
0.000722771
0.000726582
0.000723741
0.000727318
0.000727617
0.00072401
0.000728825
0.000723881
0.000728195
0.000728397
0.000724514
0.000727966
0.000728274
0.00072361
0.000728146
0.000722651
0.000727793
0.000722336
0.000726748
0.000722556
0.000722681
0.000727399
0.000723675
0.000728094
0.000728449
0.000723835
0.000729677
0.00072357
0.000728955
0.000729258
0.00072432
0.000728737
0.000729166
0.000723369
0.000729055
0.000722377
0.000728748
0.000722107
0.000727641
0.000722409
0.000722476
0.000728296
0.00072348
0.000728926
0.000729358
0.000723543
0.000730592
0.000723107
0.000729771
0.000730204
0.000723938
0.000729561
0.000730135
0.000722964
0.000730027
0.000721965
0.000729777
0.000721751
0.00072863
0.000722137
0.00072213
0.000729291
0.000723127
0.000729823
0.000730361
0.000723103
0.000731584
0.000722465
0.000730652
0.000731251
0.000723344
0.000730449
0.000731199
0.000722381
0.000731079
0.000721416
0.000730903
0.000721266
0.000729744
0.000721728
0.00072163
0.000730409
0.000722593
0.00073079
0.000731474
0.000722503
0.000732661
0.000721567
0.00073161
0.000732426
0.000722441
0.00073142
0.000732391
0.000721539
0.000732224
0.000720663
0.000732133
0.000720586
0.000731003
0.000721126
0.000720911
0.000731669
0.000721803
0.000731843
0.000732717
0.00072165
0.000733873
0.000720485
0.000732678
0.000733744
0.000721287
0.000732496
0.000733711
0.00072051
0.000733495
0.000719777
0.000733489
0.000719777
0.000732442
0.000720377
0.000720035
0.000733136
0.000720829
0.000733011
0.000734096
0.000720614
0.000735188
0.000719441
0.000733828
0.000735254
0.000720059
0.000733653
0.000735223
0.000719541
0.000734875
0.000719066
0.000734956
0.00071915
0.000734072
0.000719755
0.000719282
0.000734769
0.000719904
0.000734269
0.000735666
0.000719636
0.000737623
0.000944115
0.000736677
0.000736994
0.000944557
0.000736302
0.000737143
0.000944008
0.000737033
0.000945505
0.000737239
0.000947222
0.000737071
0.000955054
0.000930283
0.000738356
0.000940659
0.000737409
0.000737228
0.000940472
0.000726307
0.000724103
0.000723931
0.000723802
0.00072362
0.000723394
0.000723098
0.000722751
0.000722227
0.000721728
0.000721767
0.000722232
0.000722436
0.000722613
0.000722893
0.000723134
0.000723391
0.000723593
0.000723927
0.000730008
0.000722324
0.000720854
0.000720735
0.000720615
0.000720453
0.000720258
0.000720006
0.000719721
0.000719261
0.000718833
0.000719169
0.000719776
0.000719906
0.000720014
0.000720154
0.000720303
0.000720467
0.000720608
0.000720779
0.000724702
0.00071979
0.00071872
0.000718618
0.000718495
0.000718331
0.000718128
0.000717872
0.000717589
0.000717144
0.000716802
0.000717376
0.000717937
0.000718
0.000718089
0.000718176
0.000718302
0.000718441
0.000718561
0.000718681
0.000721417
0.000718388
0.000717552
0.000717449
0.000717314
0.00071714
0.000716927
0.000716667
0.000716392
0.000716001
0.000715743
0.000716527
0.000717004
0.000716964
0.000717029
0.000717107
0.000717233
0.000717359
0.000717465
0.000717556
0.000719565
0.000717608
0.000716916
0.000716802
0.000716652
0.000716469
0.000716244
0.000715978
0.000715708
0.000715384
0.000715246
0.000716181
0.000716513
0.000716392
0.000716448
0.000716528
0.000716659
0.000716778
0.000716875
0.000716949
0.000718488
0.000717137
0.000716539
0.000716409
0.000716251
0.000716065
0.000715837
0.000715577
0.000715321
0.000715078
0.000715052
0.000716068
0.000716261
0.000716051
0.000716113
0.000716191
0.000716321
0.000716432
0.000716522
0.000716589
0.000717805
0.000716787
0.000716279
0.000716143
0.000715985
0.000715797
0.000715568
0.000715326
0.000715083
0.000714931
0.000715016
0.000715864
0.000716112
0.000715808
0.000715871
0.000715947
0.000716073
0.00071618
0.000716273
0.000716341
0.000717339
0.00071665
0.000716223
0.000716089
0.00071592
0.000715715
0.000715488
0.000715266
0.000715051
0.000714979
0.00071517
0.000715966
0.000716099
0.000715731
0.000715794
0.00071587
0.000715995
0.000716111
0.000716213
0.000716287
0.000717132
0.000716772
0.000716382
0.000716241
0.00071605
0.000715819
0.000715601
0.000715404
0.000715228
0.00071525
0.000715476
0.000716169
0.000716111
0.000715849
0.0007159
0.000715982
0.000716117
0.000716258
0.000716366
0.000716447
0.000717174
0.000716955
0.000716597
0.000716456
0.000716263
0.000716033
0.000715825
0.00071565
0.000715505
0.000715605
0.000715833
0.000716402
0.000716306
0.000716057
0.000716092
0.000716184
0.000716326
0.000716471
0.000716577
0.000716655
0.000717288
0.000717171
0.000716853
0.000716725
0.000716551
0.000716345
0.000716151
0.000715995
0.000715868
0.000715991
0.000716218
0.000716695
0.000716568
0.000716343
0.00071637
0.000716462
0.00071659
0.000716712
0.000716813
0.000716891
0.000717451
0.000717433
0.000717149
0.000717032
0.000716873
0.000716686
0.000716508
0.000716369
0.000716257
0.000716364
0.000716533
0.00071705
0.000716876
0.000716652
0.000716663
0.000716753
0.000716873
0.000716984
0.000717085
0.000717167
0.000717668
0.000717744
0.000717487
0.000717378
0.000717227
0.000717049
0.000716886
0.000716763
0.000716672
0.000716806
0.000717009
0.000717406
0.000717277
0.000716957
0.000716955
0.000717047
0.000717172
0.000717286
0.000717395
0.000717481
0.000717937
0.000718094
0.000717859
0.000717758
0.000717614
0.00071744
0.00071729
0.000717181
0.000717103
0.000717262
0.000717505
0.000717811
0.000717622
0.000717272
0.000717264
0.000717359
0.000717494
0.000717617
0.000717737
0.000717829
0.000718248
0.000718476
0.000718258
0.000718166
0.00071803
0.000717859
0.00071772
0.00071762
0.000717548
0.000717725
0.000718007
0.000718205
0.000717981
0.000717604
0.000717589
0.00071769
0.000717838
0.000717972
0.000718107
0.000718205
0.000718594
0.000718886
0.000718679
0.000718598
0.000718469
0.0007183
0.000718172
0.000718079
0.000718006
0.0007182
0.000718541
0.000718645
0.00071821
0.00071795
0.000717929
0.000718035
0.000718202
0.000718346
0.000718499
0.000718605
0.000718966
0.000719317
0.000719115
0.000719048
0.000718926
0.000718758
0.000718643
0.000718552
0.000718461
0.000718494
0.000718855
0.000718913
0.000718386
0.000718304
0.000718276
0.000718392
0.000718582
0.000718734
0.000718911
0.000719025
0.00071936
0.000719767
0.000719562
0.000719513
0.0007194
0.000719227
0.000719127
0.000719035
0.000718923
0.000718928
0.000718936
0.000718975
0.000718729
0.000718668
0.000718631
0.000718757
0.000718976
0.000719135
0.000719341
0.000719462
0.00071977
0.000720233
0.000720016
0.000719992
0.000719887
0.000719704
0.000719623
0.000719528
0.000719385
0.000719387
0.000719303
0.000719318
0.000719082
0.000719044
0.00071899
0.000719128
0.000719384
0.000719544
0.000719787
0.000719917
0.00072019
0.000720715
0.000720472
0.000720482
0.000720386
0.000720186
0.00072013
0.000720031
0.000719845
0.000719858
0.00071969
0.000719706
0.000719443
0.000719431
0.000719349
0.0007195
0.000719805
0.000719957
0.000720248
0.000720387
0.000720617
0.000721211
0.000720926
0.000720984
0.000720896
0.000720669
0.000720647
0.000720546
0.000720302
0.000720341
0.000720082
0.000720125
0.000719806
0.000719831
0.000719709
0.000719873
0.000720239
0.000720373
0.000720724
0.000720872
0.000721044
0.000721722
0.000721373
0.000721497
0.000721417
0.00072115
0.000721174
0.00072107
0.000720752
0.000720839
0.000720472
0.000720569
0.000720167
0.000720245
0.000720061
0.000720241
0.000720687
0.000720786
0.000721214
0.00072137
0.000721468
0.000722248
0.000721807
0.000722021
0.00072195
0.000721623
0.000721709
0.000721608
0.000721192
0.000721353
0.00072085
0.000721035
0.000720518
0.000720675
0.000720406
0.000720601
0.000721149
0.000721194
0.00072172
0.000721884
0.00072188
0.000722793
0.000722224
0.000722556
0.000722495
0.000722087
0.000722258
0.000722159
0.000721616
0.000721888
0.000721214
0.00072153
0.000720857
0.000721122
0.00072074
0.000720951
0.000721629
0.000721591
0.000722241
0.000722413
0.000722279
0.000723355
0.000722615
0.000723104
0.000723051
0.00072253
0.000722815
0.000722725
0.00072202
0.000722448
0.000721556
0.000722056
0.000721177
0.00072159
0.000721057
0.000721283
0.000722126
0.000721972
0.000722779
0.000722958
0.000722653
0.000723939
0.000722974
0.000723666
0.000723623
0.000722952
0.000723386
0.000723311
0.000722398
0.000723032
0.000721865
0.000722613
0.00072147
0.000722085
0.000721356
0.000721595
0.000722647
0.000722332
0.000723337
0.000723525
0.000722998
0.000724547
0.000723293
0.000724242
0.000724212
0.000723342
0.00072397
0.000723916
0.000722737
0.000723645
0.000722137
0.000723208
0.000721727
0.000722605
0.00072163
0.000721877
0.000723193
0.000722664
0.000723915
0.000724116
0.000723305
0.000725179
0.00072356
0.000724835
0.000724818
0.000723687
0.000724567
0.000724546
0.000723033
0.000724293
0.000722362
0.000723844
0.000721945
0.000723161
0.000721876
0.000722122
0.000723766
0.000722958
0.000724517
0.000724732
0.00072356
0.000725841
0.000723767
0.000725448
0.00072545
0.000723985
0.000725185
0.000725206
0.000723275
0.000724974
0.000722528
0.000724523
0.00072211
0.000723756
0.000722084
0.000722324
0.000724376
0.000723207
0.000725147
0.00072538
0.000723756
0.000726536
0.000723901
0.000726081
0.000726111
0.000724219
0.000725822
0.000725897
0.000723449
0.000725697
0.000722628
0.000725251
0.000722217
0.000724394
0.000722242
0.000722471
0.000725027
0.000723398
0.000725807
0.000726065
0.00072388
0.000727262
0.000723948
0.000726744
0.000726811
0.000724372
0.000726485
0.000726631
0.000723543
0.000726464
0.000722651
0.000726033
0.000722257
0.000725083
0.000722343
0.000722552
0.000725724
0.000723518
0.000726506
0.000726794
0.000723912
0.000728031
0.000723892
0.000727438
0.000727559
0.000724437
0.000727181
0.000727414
0.000723543
0.000727276
0.000722583
0.000726868
0.000722215
0.000725834
0.000722375
0.000722554
0.000726483
0.000723554
0.000727247
0.000727574
0.000723842
0.000728845
0.000723713
0.000728163
0.000728365
0.000724387
0.000727913
0.000728251
0.000723429
0.000728141
0.000722415
0.000727768
0.000722083
0.000726653
0.000722323
0.000722459
0.00072731
0.000723483
0.000728032
0.000728419
0.000723657
0.000729711
0.000723394
0.000728935
0.000729239
0.000724188
0.000728694
0.000729158
0.000723182
0.000729067
0.000722134
0.000728741
0.000721848
0.000727561
0.000722172
0.000722253
0.000728222
0.000723285
0.000728875
0.000729344
0.000723358
0.000730644
0.000722926
0.000729763
0.000730201
0.000723803
0.000729531
0.000730145
0.000722774
0.000730058
0.00072172
0.00072979
0.000721492
0.000728569
0.000721901
0.000721911
0.000729235
0.000722933
0.000729787
0.000730366
0.000722915
0.000731654
0.000722284
0.000730658
0.000731266
0.000723209
0.000730435
0.000731229
0.000722191
0.000731131
0.000721173
0.000730937
0.00072101
0.000729706
0.000721497
0.000721418
0.000730374
0.000722404
0.000730772
0.000731501
0.000722319
0.000732753
0.000721398
0.000731635
0.000732464
0.000722317
0.000731426
0.000732445
0.000721364
0.000732299
0.000720439
0.000732194
0.000720351
0.000730993
0.000720915
0.000720722
0.000731662
0.000721631
0.000731847
0.000732769
0.00072148
0.000733987
0.000720325
0.000732722
0.000733805
0.000721169
0.000732523
0.000733789
0.000720345
0.000733595
0.000719569
0.000733578
0.000719561
0.000732462
0.000720183
0.000719866
0.000733157
0.00072067
0.00073304
0.000734176
0.000720457
0.000735329
0.000719334
0.000733899
0.000735344
0.000719984
0.000733707
0.000735328
0.000719425
0.000735001
0.000718913
0.000735074
0.000718992
0.000734126
0.000719617
0.000719169
0.000734823
0.000719794
0.000734326
0.000735772
0.000719527
0.000737813
0.000944235
0.000736805
0.000737129
0.000944667
0.000736396
0.000737311
0.000944128
0.000737219
0.000945752
0.000737427
0.000947544
0.000737202
0.000955422
0.000930081
0.000738469
0.00094067
0.000737533
0.000737381
0.000940393
0.000727342
0.000725027
0.00072484
0.000724695
0.000724487
0.000724222
0.000723875
0.000723466
0.000722845
0.000722246
0.000722308
0.000722887
0.000723126
0.000723321
0.000723643
0.000723922
0.000724218
0.000724454
0.000724814
0.000730873
0.000723115
0.000721557
0.000721424
0.000721286
0.000721099
0.000720873
0.000720579
0.000720247
0.000719709
0.0007192
0.000719628
0.000720373
0.000720513
0.00072063
0.000720785
0.00072095
0.000721133
0.00072129
0.000721475
0.000725386
0.000720398
0.000719258
0.00071914
0.000718998
0.000718806
0.00071857
0.000718275
0.000717948
0.00071743
0.000717026
0.000717749