/*--------------------------------*- C++ -*----------------------------------*\
| =========                 |                                                 |
| \\      /  F ield         | OpenFOAM: The Open Source CFD Toolbox           |
|  \\    /   O peration     | Version:  2.4.0                                 |
|   \\  /    A nd           | Web:      www.OpenFOAM.org                      |
|    \\/     M anipulation  |                                                 |
\*---------------------------------------------------------------------------*/
FoamFile
{
    version     2.0;
    format      ascii;
    class       volScalarField;
    location    "10";
    object      nut;
}
// * * * * * * * * * * * * * * * * * * * * * * * * * * * * * * * * * * * * * //

dimensions      [0 2 -1 0 0 0 0];

internalField   nonuniform List<scalar> 
283312
(
1.95987e-05
1.96065e-05
1.96049e-05
1.96032e-05
1.9601e-05
1.95985e-05
1.95954e-05
1.95924e-05
1.95882e-05
1.95846e-05
1.95853e-05
1.95875e-05
1.9587e-05
1.95872e-05
1.95894e-05
1.9592e-05
1.95951e-05
1.95976e-05
1.96045e-05
1.97132e-05
1.95392e-05
1.95464e-05
1.95455e-05
1.95443e-05
1.95426e-05
1.95407e-05
1.95384e-05
1.95359e-05
1.95328e-05
1.95303e-05
1.95326e-05
1.9535e-05
1.95334e-05
1.95335e-05
1.95346e-05
1.95366e-05
1.95388e-05
1.95409e-05
1.95445e-05
1.96163e-05
1.94972e-05
1.95036e-05
1.9503e-05
1.95019e-05
1.95003e-05
1.94983e-05
1.94961e-05
1.94937e-05
1.94913e-05
1.949e-05
1.94941e-05
1.94948e-05
1.94924e-05
1.94922e-05
1.94932e-05
1.94951e-05
1.94972e-05
1.94992e-05
1.95016e-05
1.95525e-05
1.94737e-05
1.94791e-05
1.94785e-05
1.94773e-05
1.94757e-05
1.94736e-05
1.94713e-05
1.9469e-05
1.94675e-05
1.94676e-05
1.94731e-05
1.94729e-05
1.94692e-05
1.94685e-05
1.94695e-05
1.94715e-05
1.94736e-05
1.94754e-05
1.94773e-05
1.95151e-05
1.94597e-05
1.94641e-05
1.94633e-05
1.94618e-05
1.94602e-05
1.9458e-05
1.94557e-05
1.94536e-05
1.94532e-05
1.94544e-05
1.94607e-05
1.94596e-05
1.94547e-05
1.94539e-05
1.94552e-05
1.94572e-05
1.94592e-05
1.94609e-05
1.94624e-05
1.94917e-05
1.94496e-05
1.94532e-05
1.9452e-05
1.94504e-05
1.94487e-05
1.94465e-05
1.94445e-05
1.94428e-05
1.94434e-05
1.94453e-05
1.94515e-05
1.94499e-05
1.94442e-05
1.94437e-05
1.94449e-05
1.94469e-05
1.94487e-05
1.94502e-05
1.94517e-05
1.9475e-05
1.94403e-05
1.94437e-05
1.94423e-05
1.94407e-05
1.94391e-05
1.9437e-05
1.94352e-05
1.9434e-05
1.94353e-05
1.94376e-05
1.94409e-05
1.94414e-05
1.94352e-05
1.94347e-05
1.94358e-05
1.94376e-05
1.94392e-05
1.94409e-05
1.94424e-05
1.94618e-05
1.94345e-05
1.94381e-05
1.94366e-05
1.94349e-05
1.94328e-05
1.94307e-05
1.94294e-05
1.94285e-05
1.94301e-05
1.94331e-05
1.9436e-05
1.9436e-05
1.94291e-05
1.94288e-05
1.94298e-05
1.94314e-05
1.94333e-05
1.94353e-05
1.94369e-05
1.94536e-05
1.94339e-05
1.94369e-05
1.94353e-05
1.9433e-05
1.94302e-05
1.94284e-05
1.94274e-05
1.94269e-05
1.94291e-05
1.94323e-05
1.94344e-05
1.94317e-05
1.94268e-05
1.94268e-05
1.94278e-05
1.94298e-05
1.94323e-05
1.94343e-05
1.94361e-05
1.94506e-05
1.9434e-05
1.94367e-05
1.9435e-05
1.94325e-05
1.94297e-05
1.9428e-05
1.94272e-05
1.94268e-05
1.94295e-05
1.94325e-05
1.9434e-05
1.9431e-05
1.94263e-05
1.94264e-05
1.94276e-05
1.94299e-05
1.94325e-05
1.94344e-05
1.9436e-05
1.94486e-05
1.94343e-05
1.94369e-05
1.94354e-05
1.94333e-05
1.94309e-05
1.94294e-05
1.94287e-05
1.94281e-05
1.94305e-05
1.94334e-05
1.94348e-05
1.94319e-05
1.94276e-05
1.94277e-05
1.94289e-05
1.94309e-05
1.9433e-05
1.94346e-05
1.94362e-05
1.94474e-05
1.94351e-05
1.94379e-05
1.94365e-05
1.94346e-05
1.94325e-05
1.94312e-05
1.94306e-05
1.94298e-05
1.94316e-05
1.94345e-05
1.94365e-05
1.94336e-05
1.94293e-05
1.94292e-05
1.94303e-05
1.94321e-05
1.94339e-05
1.94354e-05
1.94369e-05
1.94469e-05
1.94366e-05
1.94395e-05
1.94382e-05
1.94364e-05
1.94345e-05
1.94333e-05
1.94328e-05
1.94321e-05
1.94341e-05
1.94374e-05
1.94387e-05
1.94367e-05
1.94309e-05
1.94305e-05
1.94316e-05
1.94334e-05
1.94352e-05
1.94368e-05
1.94383e-05
1.94474e-05
1.94387e-05
1.94417e-05
1.94405e-05
1.94387e-05
1.94369e-05
1.94358e-05
1.94354e-05
1.94347e-05
1.94369e-05
1.94404e-05
1.94413e-05
1.94388e-05
1.94325e-05
1.9432e-05
1.94332e-05
1.94351e-05
1.9437e-05
1.94387e-05
1.94402e-05
1.94486e-05
1.94413e-05
1.94445e-05
1.94433e-05
1.94416e-05
1.94398e-05
1.94387e-05
1.94382e-05
1.94375e-05
1.94398e-05
1.94434e-05
1.94437e-05
1.94408e-05
1.94343e-05
1.94338e-05
1.9435e-05
1.94371e-05
1.94392e-05
1.9441e-05
1.94426e-05
1.94504e-05
1.94444e-05
1.94476e-05
1.94464e-05
1.94448e-05
1.94431e-05
1.94419e-05
1.94415e-05
1.94406e-05
1.94427e-05
1.94468e-05
1.94466e-05
1.94409e-05
1.94364e-05
1.94359e-05
1.94372e-05
1.94394e-05
1.94418e-05
1.94437e-05
1.94453e-05
1.94527e-05
1.94477e-05
1.94511e-05
1.94499e-05
1.94483e-05
1.94467e-05
1.94455e-05
1.9445e-05
1.94439e-05
1.94433e-05
1.94476e-05
1.94472e-05
1.94406e-05
1.94386e-05
1.94381e-05
1.94396e-05
1.9442e-05
1.94446e-05
1.94468e-05
1.94484e-05
1.94555e-05
1.94513e-05
1.94548e-05
1.94536e-05
1.94521e-05
1.94506e-05
1.94493e-05
1.94487e-05
1.94474e-05
1.94463e-05
1.94457e-05
1.94451e-05
1.94428e-05
1.94411e-05
1.94405e-05
1.94421e-05
1.94448e-05
1.94477e-05
1.94501e-05
1.94518e-05
1.94586e-05
1.9455e-05
1.94587e-05
1.94576e-05
1.94561e-05
1.94546e-05
1.94534e-05
1.94526e-05
1.94511e-05
1.94497e-05
1.94485e-05
1.94473e-05
1.94453e-05
1.94436e-05
1.94431e-05
1.94448e-05
1.94478e-05
1.94509e-05
1.94536e-05
1.94555e-05
1.94619e-05
1.94589e-05
1.94627e-05
1.94616e-05
1.94603e-05
1.94589e-05
1.94576e-05
1.94567e-05
1.9455e-05
1.94533e-05
1.94516e-05
1.945e-05
1.9448e-05
1.94463e-05
1.94457e-05
1.94475e-05
1.94508e-05
1.94544e-05
1.94574e-05
1.94594e-05
1.94655e-05
1.94628e-05
1.94668e-05
1.94659e-05
1.94646e-05
1.94632e-05
1.94619e-05
1.9461e-05
1.94589e-05
1.94569e-05
1.94549e-05
1.94529e-05
1.94508e-05
1.9449e-05
1.94483e-05
1.94503e-05
1.9454e-05
1.94579e-05
1.94613e-05
1.94634e-05
1.94692e-05
1.94669e-05
1.9471e-05
1.94702e-05
1.94691e-05
1.94677e-05
1.94664e-05
1.94653e-05
1.94629e-05
1.94606e-05
1.94583e-05
1.9456e-05
1.94537e-05
1.94518e-05
1.94509e-05
1.94531e-05
1.94573e-05
1.94615e-05
1.94653e-05
1.94676e-05
1.9473e-05
1.94709e-05
1.94751e-05
1.94747e-05
1.94736e-05
1.94722e-05
1.9471e-05
1.94698e-05
1.9467e-05
1.94644e-05
1.94618e-05
1.94592e-05
1.94567e-05
1.94547e-05
1.94535e-05
1.94559e-05
1.94606e-05
1.94652e-05
1.94695e-05
1.94719e-05
1.94767e-05
1.9475e-05
1.94792e-05
1.94793e-05
1.94783e-05
1.94766e-05
1.94757e-05
1.94744e-05
1.9471e-05
1.94682e-05
1.94652e-05
1.94625e-05
1.94597e-05
1.94576e-05
1.94561e-05
1.94585e-05
1.94641e-05
1.94688e-05
1.94739e-05
1.94763e-05
1.94805e-05
1.9479e-05
1.94832e-05
1.94839e-05
1.94832e-05
1.9481e-05
1.94806e-05
1.94791e-05
1.9475e-05
1.94721e-05
1.94686e-05
1.94659e-05
1.94627e-05
1.94606e-05
1.94584e-05
1.94611e-05
1.94676e-05
1.94724e-05
1.94784e-05
1.94807e-05
1.94841e-05
1.94832e-05
1.94869e-05
1.94888e-05
1.94881e-05
1.94853e-05
1.94855e-05
1.9484e-05
1.94789e-05
1.94761e-05
1.94719e-05
1.94694e-05
1.94655e-05
1.94637e-05
1.94607e-05
1.94634e-05
1.94712e-05
1.94759e-05
1.9483e-05
1.94854e-05
1.94876e-05
1.94873e-05
1.94904e-05
1.94937e-05
1.94932e-05
1.94893e-05
1.94907e-05
1.94889e-05
1.94825e-05
1.94801e-05
1.94749e-05
1.9473e-05
1.94682e-05
1.94669e-05
1.94626e-05
1.94654e-05
1.94749e-05
1.94792e-05
1.94879e-05
1.94902e-05
1.94908e-05
1.94916e-05
1.94934e-05
1.94989e-05
1.94985e-05
1.94929e-05
1.9496e-05
1.9494e-05
1.94858e-05
1.94842e-05
1.94777e-05
1.94768e-05
1.94706e-05
1.94703e-05
1.94643e-05
1.94671e-05
1.94789e-05
1.94822e-05
1.94931e-05
1.94952e-05
1.94935e-05
1.9496e-05
1.94958e-05
1.95042e-05
1.9504e-05
1.94961e-05
1.95015e-05
1.94993e-05
1.94887e-05
1.94886e-05
1.948e-05
1.94809e-05
1.94727e-05
1.9474e-05
1.94655e-05
1.94683e-05
1.94831e-05
1.94847e-05
1.94986e-05
1.95004e-05
1.94957e-05
1.95007e-05
1.94975e-05
1.95099e-05
1.95097e-05
1.94986e-05
1.95073e-05
1.95049e-05
1.94909e-05
1.94932e-05
1.94817e-05
1.94853e-05
1.94742e-05
1.9478e-05
1.94662e-05
1.9469e-05
1.94878e-05
1.94867e-05
1.95045e-05
1.9506e-05
1.94972e-05
1.95056e-05
1.94982e-05
1.9516e-05
1.95158e-05
1.95002e-05
1.95136e-05
1.9511e-05
1.94923e-05
1.94982e-05
1.94826e-05
1.94903e-05
1.9475e-05
1.94826e-05
1.94662e-05
1.94689e-05
1.9493e-05
1.94879e-05
1.9511e-05
1.9512e-05
1.94977e-05
1.95112e-05
1.94976e-05
1.95225e-05
1.95224e-05
1.95009e-05
1.95203e-05
1.95175e-05
1.94926e-05
1.95038e-05
1.94824e-05
1.94961e-05
1.94749e-05
1.9488e-05
1.94654e-05
1.9468e-05
1.9499e-05
1.94881e-05
1.95181e-05
1.95186e-05
1.9497e-05
1.95173e-05
1.94954e-05
1.95297e-05
1.95296e-05
1.95001e-05
1.95276e-05
1.95247e-05
1.94915e-05
1.95102e-05
1.94809e-05
1.95028e-05
1.94736e-05
1.94944e-05
1.94637e-05
1.9466e-05
1.9506e-05
1.9487e-05
1.95259e-05
1.9526e-05
1.94949e-05
1.95245e-05
1.94913e-05
1.95376e-05
1.95375e-05
1.94974e-05
1.95358e-05
1.95327e-05
1.94887e-05
1.95177e-05
1.94778e-05
1.95109e-05
1.9471e-05
1.95022e-05
1.94609e-05
1.94627e-05
1.95142e-05
1.94842e-05
1.95347e-05
1.95343e-05
1.94914e-05
1.9533e-05
1.94854e-05
1.95467e-05
1.95464e-05
1.94926e-05
1.9545e-05
1.95418e-05
1.94837e-05
1.95267e-05
1.94728e-05
1.95207e-05
1.94665e-05
1.95119e-05
1.94568e-05
1.94579e-05
1.95242e-05
1.94794e-05
1.95447e-05
1.95439e-05
1.9486e-05
1.95431e-05
1.94771e-05
1.95571e-05
1.95566e-05
1.94851e-05
1.95554e-05
1.95522e-05
1.94762e-05
1.95375e-05
1.94655e-05
1.95328e-05
1.94601e-05
1.95239e-05
1.94511e-05
1.94514e-05
1.95361e-05
1.94721e-05
1.95561e-05
1.95548e-05
1.94781e-05
1.95554e-05
1.94659e-05
1.95694e-05
1.95686e-05
1.94744e-05
1.95675e-05
1.95644e-05
1.94657e-05
1.95508e-05
1.94557e-05
1.95477e-05
1.94512e-05
1.95389e-05
1.94436e-05
1.94429e-05
1.95509e-05
1.94617e-05
1.95693e-05
1.95677e-05
1.9467e-05
1.95705e-05
1.94514e-05
1.95832e-05
1.95822e-05
1.94598e-05
1.95811e-05
1.95783e-05
1.94518e-05
1.95672e-05
1.94428e-05
1.95656e-05
1.94395e-05
1.9557e-05
1.9434e-05
1.94319e-05
1.95686e-05
1.94482e-05
1.9584e-05
1.95823e-05
1.94527e-05
1.95892e-05
1.94446e-05
1.96001e-05
1.95987e-05
1.94519e-05
1.95975e-05
1.95952e-05
1.94457e-05
1.9587e-05
1.94387e-05
1.95868e-05
1.94367e-05
1.95792e-05
1.94343e-05
1.9431e-05
1.95909e-05
1.94435e-05
1.96019e-05
1.95999e-05
1.94462e-05
1.96182e-05
2.2779e-05
1.96414e-05
1.96216e-05
2.27911e-05
1.96345e-05
1.96225e-05
2.2791e-05
1.96207e-05
2.2806e-05
1.96224e-05
2.28216e-05
1.96255e-05
2.29087e-05
2.25973e-05
1.96414e-05
2.27246e-05
1.96473e-05
1.96195e-05
2.27424e-05
1.96031e-05
1.9613e-05
1.96116e-05
1.96099e-05
1.96074e-05
1.96046e-05
1.9601e-05
1.95973e-05
1.95924e-05
1.95881e-05
1.95893e-05
1.95924e-05
1.95916e-05
1.95915e-05
1.9594e-05
1.95971e-05
1.96006e-05
1.96036e-05
1.96108e-05
1.97188e-05
1.95422e-05
1.95511e-05
1.95502e-05
1.95489e-05
1.95471e-05
1.95449e-05
1.95422e-05
1.95392e-05
1.95357e-05
1.95327e-05
1.9536e-05
1.95391e-05
1.95369e-05
1.95367e-05
1.9538e-05
1.95402e-05
1.95428e-05
1.95452e-05
1.9549e-05
1.96206e-05
1.94992e-05
1.95068e-05
1.95061e-05
1.95049e-05
1.95032e-05
1.95009e-05
1.94983e-05
1.94955e-05
1.94928e-05
1.94914e-05
1.94969e-05
1.94978e-05
1.94946e-05
1.94942e-05
1.94953e-05
1.94975e-05
1.94999e-05
1.95021e-05
1.95048e-05
1.95555e-05
1.94749e-05
1.94812e-05
1.94804e-05
1.94792e-05
1.94773e-05
1.9475e-05
1.94724e-05
1.94698e-05
1.94682e-05
1.94684e-05
1.94758e-05
1.94756e-05
1.94706e-05
1.94696e-05
1.94708e-05
1.9473e-05
1.94753e-05
1.94773e-05
1.94794e-05
1.95172e-05
1.94602e-05
1.94652e-05
1.94643e-05
1.94627e-05
1.94608e-05
1.94584e-05
1.94558e-05
1.94535e-05
1.94534e-05
1.9455e-05
1.94634e-05
1.9462e-05
1.94555e-05
1.94544e-05
1.94557e-05
1.9458e-05
1.94602e-05
1.9462e-05
1.94637e-05
1.94929e-05
1.94496e-05
1.94535e-05
1.94522e-05
1.94505e-05
1.94486e-05
1.94462e-05
1.94439e-05
1.9442e-05
1.94432e-05
1.94457e-05
1.94539e-05
1.9452e-05
1.94444e-05
1.94436e-05
1.94449e-05
1.94471e-05
1.9449e-05
1.94507e-05
1.94522e-05
1.94755e-05
1.94397e-05
1.94433e-05
1.94418e-05
1.94402e-05
1.94383e-05
1.94359e-05
1.9434e-05
1.94326e-05
1.94347e-05
1.94378e-05
1.94422e-05
1.94431e-05
1.94348e-05
1.94341e-05
1.94353e-05
1.94372e-05
1.9439e-05
1.94408e-05
1.94423e-05
1.94617e-05
1.94335e-05
1.94372e-05
1.94357e-05
1.94338e-05
1.94315e-05
1.94292e-05
1.94276e-05
1.94267e-05
1.94291e-05
1.94332e-05
1.94371e-05
1.94374e-05
1.94283e-05
1.94277e-05
1.94288e-05
1.94306e-05
1.94327e-05
1.94347e-05
1.94364e-05
1.9453e-05
1.94326e-05
1.94357e-05
1.9434e-05
1.94315e-05
1.94286e-05
1.94265e-05
1.94253e-05
1.94248e-05
1.9428e-05
1.94324e-05
1.94354e-05
1.94319e-05
1.94256e-05
1.94254e-05
1.94265e-05
1.94286e-05
1.94313e-05
1.94334e-05
1.94353e-05
1.94496e-05
1.94325e-05
1.94352e-05
1.94334e-05
1.94308e-05
1.94278e-05
1.94258e-05
1.94249e-05
1.94246e-05
1.94285e-05
1.94326e-05
1.94348e-05
1.94309e-05
1.94248e-05
1.94248e-05
1.9426e-05
1.94285e-05
1.94313e-05
1.94332e-05
1.94349e-05
1.94474e-05
1.94325e-05
1.94352e-05
1.94336e-05
1.94313e-05
1.94288e-05
1.94271e-05
1.94263e-05
1.94257e-05
1.94293e-05
1.94335e-05
1.94354e-05
1.94316e-05
1.94259e-05
1.9426e-05
1.94272e-05
1.94293e-05
1.94315e-05
1.94332e-05
1.94348e-05
1.94459e-05
1.94331e-05
1.9436e-05
1.94345e-05
1.94324e-05
1.94302e-05
1.94288e-05
1.94281e-05
1.94274e-05
1.94301e-05
1.94344e-05
1.94371e-05
1.94332e-05
1.94275e-05
1.94273e-05
1.94285e-05
1.94303e-05
1.94322e-05
1.94338e-05
1.94353e-05
1.94453e-05
1.94345e-05
1.94374e-05
1.9436e-05
1.94341e-05
1.9432e-05
1.94308e-05
1.94302e-05
1.94295e-05
1.94327e-05
1.94373e-05
1.94391e-05
1.94366e-05
1.94289e-05
1.94284e-05
1.94296e-05
1.94315e-05
1.94333e-05
1.9435e-05
1.94365e-05
1.94455e-05
1.94365e-05
1.94396e-05
1.94382e-05
1.94363e-05
1.94343e-05
1.94331e-05
1.94327e-05
1.94321e-05
1.94355e-05
1.94405e-05
1.94417e-05
1.94386e-05
1.94303e-05
1.94298e-05
1.9431e-05
1.9433e-05
1.9435e-05
1.94367e-05
1.94382e-05
1.94466e-05
1.94391e-05
1.94422e-05
1.94409e-05
1.94391e-05
1.94371e-05
1.9436e-05
1.94355e-05
1.94348e-05
1.94383e-05
1.94435e-05
1.9444e-05
1.94406e-05
1.94321e-05
1.94315e-05
1.94327e-05
1.94349e-05
1.94371e-05
1.94389e-05
1.94405e-05
1.94483e-05
1.9442e-05
1.94453e-05
1.9444e-05
1.94422e-05
1.94404e-05
1.94392e-05
1.94387e-05
1.94379e-05
1.94411e-05
1.94471e-05
1.9447e-05
1.94397e-05
1.9434e-05
1.94334e-05
1.94348e-05
1.94371e-05
1.94396e-05
1.94416e-05
1.94432e-05
1.94506e-05
1.94453e-05
1.94487e-05
1.94475e-05
1.94457e-05
1.9444e-05
1.94428e-05
1.94422e-05
1.94411e-05
1.94407e-05
1.94471e-05
1.94469e-05
1.94383e-05
1.94362e-05
1.94356e-05
1.9437e-05
1.94396e-05
1.94423e-05
1.94445e-05
1.94462e-05
1.94533e-05
1.94488e-05
1.94524e-05
1.94511e-05
1.94495e-05
1.94479e-05
1.94466e-05
1.94459e-05
1.94447e-05
1.94436e-05
1.94433e-05
1.94428e-05
1.94404e-05
1.94385e-05
1.94379e-05
1.94395e-05
1.94423e-05
1.94453e-05
1.94478e-05
1.94496e-05
1.94563e-05
1.94525e-05
1.94563e-05
1.9455e-05
1.94535e-05
1.94519e-05
1.94506e-05
1.94499e-05
1.94484e-05
1.94469e-05
1.94459e-05
1.94447e-05
1.94427e-05
1.94409e-05
1.94403e-05
1.94421e-05
1.94452e-05
1.94485e-05
1.94512e-05
1.94532e-05
1.94597e-05
1.94564e-05
1.94603e-05
1.94591e-05
1.94577e-05
1.94562e-05
1.94548e-05
1.9454e-05
1.94522e-05
1.94504e-05
1.94489e-05
1.94473e-05
1.94453e-05
1.94435e-05
1.94429e-05
1.94448e-05
1.94482e-05
1.94519e-05
1.94549e-05
1.9457e-05
1.94632e-05
1.94603e-05
1.94644e-05
1.94633e-05
1.9462e-05
1.94606e-05
1.94592e-05
1.94582e-05
1.94562e-05
1.94541e-05
1.94522e-05
1.94501e-05
1.94481e-05
1.94462e-05
1.94455e-05
1.94475e-05
1.94513e-05
1.94554e-05
1.94588e-05
1.9461e-05
1.94669e-05
1.94643e-05
1.94686e-05
1.94677e-05
1.94665e-05
1.9465e-05
1.94637e-05
1.94626e-05
1.94602e-05
1.94578e-05
1.94556e-05
1.94531e-05
1.9451e-05
1.94489e-05
1.9448e-05
1.94503e-05
1.94545e-05
1.9459e-05
1.94629e-05
1.94652e-05
1.94707e-05
1.94683e-05
1.94728e-05
1.94722e-05
1.94711e-05
1.94696e-05
1.94683e-05
1.94671e-05
1.94643e-05
1.94615e-05
1.9459e-05
1.94563e-05
1.94539e-05
1.94517e-05
1.94506e-05
1.9453e-05
1.94578e-05
1.94626e-05
1.9467e-05
1.94695e-05
1.94745e-05
1.94724e-05
1.9477e-05
1.94768e-05
1.94758e-05
1.94741e-05
1.94731e-05
1.94717e-05
1.94684e-05
1.94653e-05
1.94625e-05
1.94595e-05
1.94569e-05
1.94546e-05
1.94531e-05
1.94556e-05
1.94612e-05
1.94663e-05
1.94714e-05
1.94739e-05
1.94783e-05
1.94765e-05
1.9481e-05
1.94815e-05
1.94807e-05
1.94786e-05
1.9478e-05
1.94765e-05
1.94724e-05
1.94692e-05
1.9466e-05
1.94628e-05
1.94599e-05
1.94576e-05
1.94555e-05
1.94582e-05
1.94647e-05
1.94699e-05
1.94759e-05
1.94784e-05
1.9482e-05
1.94806e-05
1.94849e-05
1.94864e-05
1.94857e-05
1.94829e-05
1.9483e-05
1.94814e-05
1.94764e-05
1.94731e-05
1.94693e-05
1.94663e-05
1.94628e-05
1.94606e-05
1.94578e-05
1.94605e-05
1.94683e-05
1.94734e-05
1.94806e-05
1.9483e-05
1.94855e-05
1.94848e-05
1.94885e-05
1.94914e-05
1.94909e-05
1.9487e-05
1.94883e-05
1.94863e-05
1.94801e-05
1.94772e-05
1.94725e-05
1.94699e-05
1.94656e-05
1.94638e-05
1.94598e-05
1.94626e-05
1.94721e-05
1.94768e-05
1.94856e-05
1.94879e-05
1.94888e-05
1.94891e-05
1.94916e-05
1.94967e-05
1.94963e-05
1.94908e-05
1.94937e-05
1.94915e-05
1.94836e-05
1.94813e-05
1.94754e-05
1.94737e-05
1.94681e-05
1.94672e-05
1.94615e-05
1.94644e-05
1.94761e-05
1.94799e-05
1.94908e-05
1.94929e-05
1.94917e-05
1.94936e-05
1.94942e-05
1.95021e-05
1.95019e-05
1.94941e-05
1.94994e-05
1.9497e-05
1.94866e-05
1.94857e-05
1.94779e-05
1.94778e-05
1.94703e-05
1.94709e-05
1.94628e-05
1.94657e-05
1.94805e-05
1.94826e-05
1.94965e-05
1.94983e-05
1.94941e-05
1.94983e-05
1.9496e-05
1.95079e-05
1.95078e-05
1.94968e-05
1.95053e-05
1.95027e-05
1.9489e-05
1.94904e-05
1.94798e-05
1.94823e-05
1.9472e-05
1.9475e-05
1.94636e-05
1.94665e-05
1.94853e-05
1.94848e-05
1.95025e-05
1.9504e-05
1.94957e-05
1.95034e-05
1.94969e-05
1.95141e-05
1.95141e-05
1.94987e-05
1.95117e-05
1.95089e-05
1.94906e-05
1.94956e-05
1.9481e-05
1.94874e-05
1.94731e-05
1.94797e-05
1.94639e-05
1.94666e-05
1.94906e-05
1.94862e-05
1.95091e-05
1.95102e-05
1.94964e-05
1.95091e-05
1.94965e-05
1.95209e-05
1.95209e-05
1.94995e-05
1.95187e-05
1.95156e-05
1.94912e-05
1.95013e-05
1.94811e-05
1.94932e-05
1.94733e-05
1.94853e-05
1.94634e-05
1.9466e-05
1.94968e-05
1.94867e-05
1.95164e-05
1.9517e-05
1.94959e-05
1.95154e-05
1.94946e-05
1.95282e-05
1.95282e-05
1.9499e-05
1.95262e-05
1.9523e-05
1.94905e-05
1.95078e-05
1.948e-05
1.95001e-05
1.94724e-05
1.94919e-05
1.9462e-05
1.94642e-05
1.9504e-05
1.94859e-05
1.95245e-05
1.95246e-05
1.94941e-05
1.95228e-05
1.94909e-05
1.95364e-05
1.95363e-05
1.94966e-05
1.95347e-05
1.95312e-05
1.9488e-05
1.95155e-05
1.94773e-05
1.95084e-05
1.94702e-05
1.95e-05
1.94596e-05
1.94614e-05
1.95126e-05
1.94834e-05
1.95336e-05
1.95331e-05
1.94909e-05
1.95314e-05
1.94853e-05
1.95457e-05
1.95455e-05
1.94921e-05
1.95442e-05
1.95406e-05
1.94835e-05
1.95247e-05
1.94726e-05
1.95185e-05
1.94662e-05
1.951e-05
1.94559e-05
1.9457e-05
1.95228e-05
1.9479e-05
1.95439e-05
1.95429e-05
1.94858e-05
1.95418e-05
1.94775e-05
1.95564e-05
1.9556e-05
1.94852e-05
1.95549e-05
1.95513e-05
1.94765e-05
1.95357e-05
1.94659e-05
1.95308e-05
1.94603e-05
1.95223e-05
1.94508e-05
1.9451e-05
1.95352e-05
1.94723e-05
1.95556e-05
1.95541e-05
1.94783e-05
1.95544e-05
1.94666e-05
1.9569e-05
1.95682e-05
1.94748e-05
1.95673e-05
1.95638e-05
1.94664e-05
1.95494e-05
1.94565e-05
1.95461e-05
1.9452e-05
1.95377e-05
1.94439e-05
1.94431e-05
1.95503e-05
1.94624e-05
1.95691e-05
1.95672e-05
1.94677e-05
1.95697e-05
1.94529e-05
1.95832e-05
1.95822e-05
1.9461e-05
1.95813e-05
1.9578e-05
1.94533e-05
1.95661e-05
1.94445e-05
1.95643e-05
1.94412e-05
1.95563e-05
1.94353e-05
1.9433e-05
1.95685e-05
1.94497e-05
1.95843e-05
1.95822e-05
1.94542e-05
1.95887e-05
1.94464e-05
1.96004e-05
1.9599e-05
1.94535e-05
1.95981e-05
1.95952e-05
1.94477e-05
1.95862e-05
1.94409e-05
1.9586e-05
1.94389e-05
1.95789e-05
1.94361e-05
1.94327e-05
1.95912e-05
1.94454e-05
1.96025e-05
1.96001e-05
1.94481e-05
1.96186e-05
2.2787e-05
1.96428e-05
1.96226e-05
2.27978e-05
1.96357e-05
1.96236e-05
2.27989e-05
1.9621e-05
2.28169e-05
1.96229e-05
2.28335e-05
1.96266e-05
2.29202e-05
2.26001e-05
1.96426e-05
2.27308e-05
1.96491e-05
1.96205e-05
2.27475e-05
1.96086e-05
1.96212e-05
1.96199e-05
1.9618e-05
1.96153e-05
1.9612e-05
1.96079e-05
1.96035e-05
1.95978e-05
1.95926e-05
1.95944e-05
1.95986e-05
1.95975e-05
1.95971e-05
1.95998e-05
1.96033e-05
1.96074e-05
1.9611e-05
1.96187e-05
1.97259e-05
1.95461e-05
1.9557e-05
1.95562e-05
1.95547e-05
1.95527e-05
1.95501e-05
1.9547e-05
1.95435e-05
1.95394e-05
1.9536e-05
1.95405e-05
1.95446e-05
1.95415e-05
1.9541e-05
1.95424e-05
1.95449e-05
1.95479e-05
1.95506e-05
1.95548e-05
1.9626e-05
1.95019e-05
1.9511e-05
1.95102e-05
1.95089e-05
1.95069e-05
1.95043e-05
1.95013e-05
1.94981e-05
1.9495e-05
1.94935e-05
1.95009e-05
1.95021e-05
1.94977e-05
1.9497e-05
1.94982e-05
1.95007e-05
1.95034e-05
1.9506e-05
1.95089e-05
1.95595e-05
1.94766e-05
1.94839e-05
1.94832e-05
1.94817e-05
1.94796e-05
1.94769e-05
1.94741e-05
1.94711e-05
1.94695e-05
1.947e-05
1.94796e-05
1.94795e-05
1.94729e-05
1.94714e-05
1.94727e-05
1.94751e-05
1.94777e-05
1.948e-05
1.94822e-05
1.95199e-05
1.94611e-05
1.94668e-05
1.94658e-05
1.94641e-05
1.9462e-05
1.94592e-05
1.94564e-05
1.94537e-05
1.9454e-05
1.94563e-05
1.94673e-05
1.94655e-05
1.94569e-05
1.94554e-05
1.94568e-05
1.94593e-05
1.94617e-05
1.94638e-05
1.94655e-05
1.94947e-05
1.94498e-05
1.94542e-05
1.94528e-05
1.9451e-05
1.94488e-05
1.94461e-05
1.94435e-05
1.94414e-05
1.94433e-05
1.94469e-05
1.94576e-05
1.94553e-05
1.94452e-05
1.9444e-05
1.94454e-05
1.94477e-05
1.94499e-05
1.94517e-05
1.94532e-05
1.94764e-05
1.94394e-05
1.94433e-05
1.94417e-05
1.94399e-05
1.94378e-05
1.94351e-05
1.94329e-05
1.94314e-05
1.94345e-05
1.94389e-05
1.94446e-05
1.9446e-05
1.94349e-05
1.94338e-05
1.94351e-05
1.94372e-05
1.94392e-05
1.94411e-05
1.94426e-05
1.94619e-05
1.94327e-05
1.94366e-05
1.9435e-05
1.9433e-05
1.94304e-05
1.94278e-05
1.9426e-05
1.9425e-05
1.94286e-05
1.94342e-05
1.94394e-05
1.944e-05
1.94279e-05
1.94271e-05
1.94282e-05
1.94301e-05
1.94324e-05
1.94345e-05
1.94362e-05
1.94527e-05
1.94314e-05
1.94347e-05
1.94328e-05
1.94302e-05
1.94271e-05
1.94247e-05
1.94233e-05
1.94229e-05
1.94273e-05
1.94335e-05
1.94374e-05
1.94331e-05
1.94247e-05
1.94244e-05
1.94255e-05
1.94278e-05
1.94306e-05
1.94328e-05
1.94346e-05
1.94489e-05
1.9431e-05
1.94338e-05
1.94319e-05
1.94291e-05
1.94259e-05
1.94238e-05
1.94227e-05
1.94224e-05
1.9428e-05
1.94337e-05
1.94366e-05
1.94317e-05
1.94236e-05
1.94234e-05
1.94247e-05
1.94273e-05
1.94302e-05
1.94322e-05
1.94339e-05
1.94463e-05
1.94308e-05
1.94336e-05
1.94318e-05
1.94294e-05
1.94266e-05
1.94248e-05
1.94239e-05
1.94233e-05
1.94287e-05
1.94346e-05
1.94372e-05
1.94321e-05
1.94245e-05
1.94244e-05
1.94257e-05
1.94279e-05
1.94302e-05
1.94319e-05
1.94335e-05
1.94445e-05
1.94312e-05
1.94341e-05
1.94325e-05
1.94303e-05
1.94279e-05
1.94263e-05
1.94256e-05
1.94248e-05
1.94291e-05
1.94352e-05
1.94387e-05
1.94335e-05
1.94258e-05
1.94255e-05
1.94267e-05
1.94287e-05
1.94306e-05
1.94323e-05
1.94338e-05
1.94436e-05
1.94324e-05
1.94354e-05
1.94339e-05
1.94318e-05
1.94295e-05
1.94282e-05
1.94276e-05
1.94269e-05
1.94317e-05
1.94382e-05
1.94404e-05
1.94373e-05
1.9427e-05
1.94265e-05
1.94277e-05
1.94297e-05
1.94316e-05
1.94333e-05
1.94348e-05
1.94437e-05
1.94343e-05
1.94374e-05
1.94359e-05
1.94339e-05
1.94317e-05
1.94305e-05
1.943e-05
1.94294e-05
1.94344e-05
1.94415e-05
1.9443e-05
1.94391e-05
1.94283e-05
1.94277e-05
1.94289e-05
1.9431e-05
1.94331e-05
1.94349e-05
1.94364e-05
1.94446e-05
1.94368e-05
1.944e-05
1.94386e-05
1.94366e-05
1.94345e-05
1.94332e-05
1.94328e-05
1.94321e-05
1.94372e-05
1.94446e-05
1.94453e-05
1.94411e-05
1.94299e-05
1.94292e-05
1.94305e-05
1.94328e-05
1.94351e-05
1.9437e-05
1.94385e-05
1.94462e-05
1.94396e-05
1.9443e-05
1.94416e-05
1.94397e-05
1.94377e-05
1.94364e-05
1.94359e-05
1.94352e-05
1.94399e-05
1.94484e-05
1.94485e-05
1.9439e-05
1.94317e-05
1.94311e-05
1.94324e-05
1.94349e-05
1.94374e-05
1.94395e-05
1.94411e-05
1.94484e-05
1.94429e-05
1.94464e-05
1.9445e-05
1.94431e-05
1.94412e-05
1.944e-05
1.94394e-05
1.94383e-05
1.94382e-05
1.94472e-05
1.94473e-05
1.94361e-05
1.94338e-05
1.94331e-05
1.94346e-05
1.94373e-05
1.94401e-05
1.94423e-05
1.94441e-05
1.9451e-05
1.94463e-05
1.945e-05
1.94486e-05
1.94468e-05
1.94451e-05
1.94438e-05
1.94431e-05
1.94418e-05
1.94408e-05
1.94409e-05
1.94407e-05
1.9438e-05
1.9436e-05
1.94353e-05
1.9437e-05
1.94399e-05
1.9443e-05
1.94455e-05
1.94473e-05
1.94541e-05
1.945e-05
1.94539e-05
1.94525e-05
1.94508e-05
1.94492e-05
1.94478e-05
1.94471e-05
1.94456e-05
1.94441e-05
1.94433e-05
1.94422e-05
1.94402e-05
1.94383e-05
1.94377e-05
1.94395e-05
1.94427e-05
1.94461e-05
1.94489e-05
1.94509e-05
1.94573e-05
1.94538e-05
1.94579e-05
1.94565e-05
1.9455e-05
1.94534e-05
1.9452e-05
1.94512e-05
1.94494e-05
1.94476e-05
1.94463e-05
1.94446e-05
1.94427e-05
1.94408e-05
1.94401e-05
1.94421e-05
1.94456e-05
1.94495e-05
1.94526e-05
1.94547e-05
1.94609e-05
1.94578e-05
1.9462e-05
1.94608e-05
1.94593e-05
1.94578e-05
1.94564e-05
1.94554e-05
1.94534e-05
1.94512e-05
1.94495e-05
1.94474e-05
1.94454e-05
1.94434e-05
1.94427e-05
1.94448e-05
1.94487e-05
1.94529e-05
1.94564e-05
1.94587e-05
1.94646e-05
1.94618e-05
1.94662e-05
1.94652e-05
1.94638e-05
1.94624e-05
1.9461e-05
1.94598e-05
1.94574e-05
1.94549e-05
1.94529e-05
1.94503e-05
1.94482e-05
1.94461e-05
1.94452e-05
1.94475e-05
1.94518e-05
1.94565e-05
1.94604e-05
1.94628e-05
1.94684e-05
1.94658e-05
1.94705e-05
1.94697e-05
1.94685e-05
1.9467e-05
1.94656e-05
1.94644e-05
1.94616e-05
1.94586e-05
1.94563e-05
1.94534e-05
1.94512e-05
1.94488e-05
1.94477e-05
1.94502e-05
1.94551e-05
1.94601e-05
1.94646e-05
1.94671e-05
1.94722e-05
1.94699e-05
1.94747e-05
1.94743e-05
1.94733e-05
1.94716e-05
1.94705e-05
1.9469e-05
1.94657e-05
1.94624e-05
1.94598e-05
1.94566e-05
1.94542e-05
1.94517e-05
1.94502e-05
1.94528e-05
1.94585e-05
1.94638e-05
1.94689e-05
1.94715e-05
1.9476e-05
1.9474e-05
1.94788e-05
1.94791e-05
1.94782e-05
1.94761e-05
1.94754e-05
1.94738e-05
1.94698e-05
1.94663e-05
1.94633e-05
1.94599e-05
1.94572e-05
1.94546e-05
1.94526e-05
1.94553e-05
1.94619e-05
1.94675e-05
1.94735e-05
1.9476e-05
1.94798e-05
1.94781e-05
1.94828e-05
1.94841e-05
1.94834e-05
1.94806e-05
1.94806e-05
1.94788e-05
1.94739e-05
1.94703e-05
1.94668e-05
1.94633e-05
1.94602e-05
1.94577e-05
1.94549e-05
1.94577e-05
1.94656e-05
1.94711e-05
1.94782e-05
1.94807e-05
1.94834e-05
1.94824e-05
1.94865e-05
1.94892e-05
1.94887e-05
1.94848e-05
1.94859e-05
1.94839e-05
1.94777e-05
1.94744e-05
1.94701e-05
1.94669e-05
1.9463e-05
1.94609e-05
1.9457e-05
1.94599e-05
1.94694e-05
1.94745e-05
1.94833e-05
1.94857e-05
1.94868e-05
1.94868e-05
1.94898e-05
1.94945e-05
1.94941e-05
1.94887e-05
1.94914e-05
1.94892e-05
1.94813e-05
1.94786e-05
1.94732e-05
1.94708e-05
1.94657e-05
1.94643e-05
1.94588e-05
1.94617e-05
1.94735e-05
1.94777e-05
1.94886e-05
1.94908e-05
1.94898e-05
1.94913e-05
1.94925e-05
1.95001e-05
1.94999e-05
1.94922e-05
1.94972e-05
1.94947e-05
1.94846e-05
1.94831e-05
1.94758e-05
1.94749e-05
1.94681e-05
1.94681e-05
1.94603e-05
1.94632e-05
1.9478e-05
1.94806e-05
1.94944e-05
1.94963e-05
1.94924e-05
1.94962e-05
1.94945e-05
1.9506e-05
1.9506e-05
1.94951e-05
1.95034e-05
1.95006e-05
1.94872e-05
1.94879e-05
1.9478e-05
1.94795e-05
1.947e-05
1.94723e-05
1.94613e-05
1.94642e-05
1.94829e-05
1.94829e-05
1.95006e-05
1.95021e-05
1.94942e-05
1.95014e-05
1.94956e-05
1.95124e-05
1.95124e-05
1.94971e-05
1.951e-05
1.9507e-05
1.94891e-05
1.94931e-05
1.94794e-05
1.94847e-05
1.94713e-05
1.94771e-05
1.94617e-05
1.94645e-05
1.94884e-05
1.94846e-05
1.95074e-05
1.95085e-05
1.94951e-05
1.95072e-05
1.94955e-05
1.95193e-05
1.95194e-05
1.94982e-05
1.95171e-05
1.95139e-05
1.94899e-05
1.9499e-05
1.94798e-05
1.94907e-05
1.94718e-05
1.94828e-05
1.94615e-05
1.94641e-05
1.94948e-05
1.94853e-05
1.95149e-05
1.95155e-05
1.94949e-05
1.95137e-05
1.94939e-05
1.95269e-05
1.9527e-05
1.94979e-05
1.9525e-05
1.95215e-05
1.94895e-05
1.95058e-05
1.9479e-05
1.94978e-05
1.94712e-05
1.94897e-05
1.94605e-05
1.94627e-05
1.95023e-05
1.94848e-05
1.95232e-05
1.95233e-05
1.94934e-05
1.95213e-05
1.94905e-05
1.95353e-05
1.95353e-05
1.94959e-05
1.95337e-05
1.953e-05
1.94874e-05
1.95137e-05
1.94767e-05
1.95063e-05
1.94694e-05
1.9498e-05
1.94585e-05
1.94602e-05
1.95111e-05
1.94828e-05
1.95326e-05
1.95321e-05
1.94904e-05
1.95302e-05
1.94852e-05
1.95449e-05
1.95448e-05
1.94918e-05
1.95435e-05
1.95396e-05
1.94833e-05
1.95231e-05
1.94725e-05
1.95166e-05
1.94659e-05
1.95083e-05
1.94552e-05
1.94563e-05
1.95217e-05
1.94788e-05
1.95432e-05
1.95421e-05
1.94857e-05
1.95407e-05
1.94778e-05
1.95559e-05
1.95555e-05
1.94852e-05
1.95545e-05
1.95505e-05
1.94768e-05
1.95344e-05
1.94663e-05
1.95292e-05
1.94605e-05
1.9521e-05
1.94506e-05
1.94509e-05
1.95344e-05
1.94725e-05
1.95552e-05
1.95536e-05
1.94786e-05
1.95536e-05
1.94673e-05
1.95687e-05
1.95681e-05
1.94753e-05
1.95673e-05
1.95634e-05
1.94671e-05
1.95482e-05
1.94574e-05
1.95448e-05
1.94527e-05
1.95368e-05
1.94443e-05
1.94434e-05
1.95499e-05
1.94631e-05
1.95691e-05
1.9567e-05
1.94684e-05
1.95692e-05
1.94541e-05
1.95833e-05
1.95823e-05
1.9462e-05
1.95816e-05
1.95779e-05
1.94546e-05
1.95653e-05
1.9446e-05
1.95634e-05
1.94426e-05
1.95558e-05
1.94363e-05
1.9434e-05
1.95685e-05
1.9451e-05
1.95846e-05
1.95823e-05
1.94554e-05
1.95885e-05
1.94481e-05
1.96008e-05
1.95994e-05
1.9455e-05
1.95987e-05
1.95954e-05
1.94495e-05
1.95858e-05
1.94429e-05
1.95855e-05
1.9441e-05
1.95789e-05
1.94378e-05
1.94343e-05
1.95917e-05
1.94473e-05
1.96032e-05
1.96006e-05
1.94498e-05
1.96191e-05
2.27914e-05
1.96441e-05
1.96236e-05
2.28014e-05
1.96368e-05
1.96248e-05
2.28037e-05
1.96216e-05
2.2824e-05
1.96235e-05
2.28414e-05
1.96277e-05
2.29275e-05
2.26007e-05
1.96437e-05
2.27337e-05
1.96508e-05
1.96214e-05
2.27493e-05
1.96154e-05
1.96311e-05
1.96299e-05
1.96279e-05
1.96249e-05
1.96211e-05
1.96162e-05
1.96111e-05
1.96043e-05
1.95981e-05
1.96008e-05
1.96064e-05
1.9605e-05
1.9604e-05
1.96069e-05
1.96109e-05
1.96157e-05
1.96199e-05
1.96281e-05
1.97345e-05
1.95509e-05
1.95643e-05
1.95635e-05
1.95619e-05
1.95595e-05
1.95565e-05
1.95529e-05
1.95489e-05
1.95441e-05
1.95401e-05
1.95463e-05
1.95518e-05
1.95474e-05
1.95464e-05
1.95479e-05
1.95508e-05
1.95541e-05
1.95573e-05
1.95618e-05
1.96327e-05
1.95053e-05
1.95161e-05
1.95153e-05
1.95138e-05
1.95115e-05
1.95085e-05
1.95051e-05
1.95014e-05
1.9498e-05
1.94965e-05