/*--------------------------------*- C++ -*----------------------------------*\
| =========                 |                                                 |
| \\      /  F ield         | OpenFOAM: The Open Source CFD Toolbox           |
|  \\    /   O peration     | Version:  2.4.0                                 |
|   \\  /    A nd           | Web:      www.OpenFOAM.org                      |
|    \\/     M anipulation  |                                                 |
\*---------------------------------------------------------------------------*/
FoamFile
{
    version     2.0;
    format      ascii;
    class       volScalarField;
    location    "10";
    object      p;
}
// * * * * * * * * * * * * * * * * * * * * * * * * * * * * * * * * * * * * * //

dimensions      [0 2 -2 0 0 0 0];

internalField   nonuniform List<scalar> 
283312
(
0.0107851
0.0107042
0.0106285
0.01063
0.0106799
0.0107372
0.0108085
0.0108779
0.010932
0.0109622
0.0109533
0.0109194
0.0108874
0.0108616
0.010839
0.0108193
0.0108083
0.0107839
0.0107669
0.0107882
0.0107914
0.0107101
0.0106356
0.0106331
0.0106814
0.0107417
0.0108116
0.0108753
0.0109272
0.0109432
0.0109129
0.0108615
0.0108299
0.0108081
0.0107955
0.0107906
0.0107857
0.0107771
0.0107676
0.0107921
0.0105227
0.0104403
0.0103669
0.0103663
0.0104207
0.0104869
0.0105629
0.0106291
0.0106729
0.0106742
0.0106129
0.0105396
0.0105063
0.0104892
0.0104921
0.0104989
0.0105071
0.0105136
0.0105108
0.0105277
0.0105409
0.0104553
0.0103866
0.0103858
0.0104461
0.0105264
0.0106141
0.0106873
0.010732
0.0107207
0.0106336
0.0105385
0.0105038
0.0104833
0.010495
0.0105154
0.0105369
0.0105501
0.0105518
0.0105627
0.0105121
0.0104192
0.0103418
0.0103405
0.010411
0.010505
0.0106061
0.0106885
0.0107328
0.0107113
0.0105961
0.0104803
0.0104379
0.0104097
0.0104284
0.0104551
0.0104876
0.010513
0.0105197
0.0105319
0.0105194
0.0104183
0.0103305
0.0103336
0.0104225
0.0105291
0.0106423
0.0107312
0.0107709
0.0107335
0.010598
0.0104626
0.0104111
0.0103739
0.0103938
0.0104236
0.0104626
0.0104849
0.010502
0.0105323
0.0103592
0.010254
0.010164
0.0101736
0.0102751
0.0103909
0.010504
0.0105924
0.0106226
0.0105754
0.0104239
0.0102693
0.0102085
0.0101636
0.010186
0.0102208
0.010258
0.0102867
0.0103172
0.0103634
0.010153
0.0100531
0.00996411
0.00996557
0.0100321
0.0101301
0.0102351
0.0103208
0.0103494
0.0102914
0.010129
0.00995921
0.0098901
0.00983937
0.0098691
0.00991826
0.00999256
0.0100463
0.0100989
0.010157
0.0100246
0.00992855
0.00983455
0.00978912
0.00979942
0.00985999
0.00995357
0.0100403
0.010075
0.0100033
0.00982684
0.0096675
0.00957982
0.00952131
0.00956141
0.00965199
0.0097765
0.00986505
0.00994168
0.0100159
0.00994501
0.00986384
0.00976809
0.00969012
0.00966773
0.00970268
0.00978536
0.00987764
0.00986138
0.00976482
0.00959677
0.00944113
0.00939353
0.00934205
0.00939014
0.00950729
0.00964359
0.00975153
0.00983978
0.00992273
0.00982799
0.00977104
0.00969398
0.00963224
0.00960737
0.00963618
0.00971273
0.0097727
0.00971269
0.00957192
0.00940317
0.00930919
0.00930689
0.00927735
0.00932962
0.00942462
0.00954814
0.00964363
0.0097235
0.00980133
0.00966959
0.0096391
0.00959376
0.00956412
0.00956382
0.00959471
0.00965819
0.00969098
0.00962116
0.00945411
0.00929746
0.00926293
0.00927237
0.00926535
0.00931365
0.00937719
0.00945789
0.00952367
0.0095851
0.0096462
0.00952337
0.00951319
0.00949217
0.00948663
0.00950335
0.00953099
0.00957952
0.00961509
0.00953437
0.00939011
0.00926062
0.00921826
0.00925181
0.00925352
0.00929428
0.0093316
0.00937984
0.00942015
0.00946327
0.00950765
0.00941267
0.00941411
0.0094052
0.00941053
0.00943311
0.00945414
0.00949115
0.00952662
0.00947199
0.00936346
0.00926149
0.00922228
0.00924353
0.00924246
0.00927256
0.00929095
0.00932271
0.00934664
0.00937567
0.00940757
0.00932681
0.00933532
0.00933092
0.00934277
0.00936998
0.00938607
0.00941491
0.00944829
0.00940733
0.00933786
0.00925911
0.00923293
0.00924449
0.00924117
0.00925977
0.00926115
0.00928362
0.00929454
0.00931255
0.00933627
0.00925953
0.0092744
0.00926933
0.00928735
0.00932182
0.00933484
0.00935958
0.00938877
0.00935033
0.00930611
0.00924579
0.00925227
0.00925157
0.00925098
0.00925961
0.00924457
0.00926191
0.00925991
0.00926856
0.00928801
0.00920593
0.00922938
0.00921823
0.00924168
0.0092852
0.00929548
0.00931835
0.00935001
0.00930775
0.00929867
0.00923819
0.00927295
0.00925581
0.0092623
0.00926521
0.0092354
0.0092538
0.00923876
0.00923947
0.0092591
0.00916179
0.00919891
0.00917614
0.00920467
0.00925904
0.00926602
0.00928925
0.00932826
0.00927403
0.00930877
0.00923437
0.00929148
0.00925449
0.00927418
0.00927419
0.00922989
0.00925652
0.00922751
0.00922149
0.00924663
0.00912343
0.00918225
0.00914184
0.00917578
0.00924277
0.00924533
0.00926799
0.0093215
0.00923939
0.00932303
0.00921636
0.00930972
0.00924808
0.00928641
0.0092861
0.0092257
0.00926817
0.00922328
0.00921132
0.00924869
0.00908777
0.00917905
0.0091141
0.00915454
0.0092357
0.0092325
0.00925289
0.00932752
0.00920536
0.00934295
0.00918436
0.00933503
0.00923597
0.00930058
0.00930092
0.00922111
0.0092874
0.00922367
0.00920615
0.009264
0.00905225
0.0091892
0.00909166
0.00914043
0.00923681
0.00922666
0.00924142
0.00934631
0.00916672
0.00937851
0.00914466
0.00936915
0.00921868
0.00931766
0.00931862
0.00921482
0.00931308
0.00922679
0.00920358
0.00929193
0.00901494
0.00921269
0.00907328
0.00913307
0.00924482
0.00922703
0.00923143
0.00937753
0.00912174
0.00942881
0.00909236
0.00941564
0.00919564
0.00933866
0.00933902
0.00920605
0.00934422
0.00923125
0.00920166
0.0093321
0.00897455
0.00924943
0.00905782
0.00913218
0.00925822
0.00923303
0.00922078
0.00942104
0.00906807
0.00949771
0.00902832
0.00947631
0.00916637
0.00936436
0.00936189
0.00919469
0.00937993
0.00923621
0.00919883
0.0093842
0.00893069
0.00929914
0.0090444
0.00913783
0.00927543
0.00924435
0.00920745
0.00947642
0.00900412
0.00958589
0.00895083
0.00955258
0.00913057
0.00939551
0.00938699
0.00918153
0.00941941
0.00924145
0.00919408
0.00944766
0.00888394
0.00936126
0.00903254
0.00915041
0.00929506
0.00926111
0.00919007
0.00954331
0.00892967
0.00969412
0.0088606
0.00964501
0.00908862
0.00943292
0.00941423
0.00916833
0.00946203
0.00924754
0.00918697
0.00952164
0.00883618
0.00943489
0.00902235
0.00917076
0.00931617
0.00928394
0.00916789
0.00962114
0.00884601
0.00982199
0.00875962
0.00975334
0.00904184
0.00947772
0.00944397
0.00915803
0.00950738
0.00925582
0.0091779
0.0096049
0.00879048
0.00951897
0.00901458
0.00920006
0.00933858
0.00931393
0.009141
0.0097091
0.0087561
0.00996796
0.00865169
0.00987634
0.00899268
0.00953144
0.00947697
0.00915445
0.00955544
0.00926838
0.00916808
0.00969594
0.00875119
0.00961246
0.00901068
0.00923953
0.00936304
0.00935244
0.00911059
0.00980646
0.00866449
0.0101292
0.00854235
0.010012
0.00894482
0.00959616
0.00951476
0.00916206
0.00960672
0.00928792
0.00915944
0.00979317
0.00872314
0.00971434
0.00901246
0.00929025
0.0093917
0.00940088
0.00907888
0.00991289
0.0085772
0.0103019
0.00843845
0.010158
0.00890296
0.00967462
0.00955944
0.00918519
0.0096622
0.00931724
0.00915461
0.00989579
0.00871113
0.00982487
0.00902221
0.00935256
0.00942826
0.00946041
0.00904895
0.0100288
0.00850086
0.0104823
0.00834754
0.0103123
0.00887243
0.00977032
0.00961393
0.00922739
0.00972442
0.009359
0.00915623
0.0100041
0.00871934
0.00994571
0.00904196
0.00942573
0.00947842
0.00953142
0.00902443
0.0101563
0.00844162
0.0106675
0.0082769
0.0104745
0.00885804
0.00988752
0.00968261
0.00929097
0.00979749
0.00941507
0.00916665
0.0101201
0.00874914
0.0100807
0.00907349
0.00950816
0.00955074
0.00961364
0.00900852
0.0102996
0.00840434
0.0108575
0.00823206
0.010647
0.00886333
0.0100319
0.00977116
0.00937556
0.00988799
0.00948633
0.00918775
0.0102493
0.00879908
0.0102374
0.00911811
0.00959616
0.00965522
0.00970548
0.00900333
0.0104651
0.00839037
0.0110555
0.00821526
0.0108351
0.00888917
0.0102094
0.00988627
0.00947826
0.0100055
0.00957241
0.00921957
0.0103985
0.00886408
0.0104374
0.00917654
0.00968571
0.00981655
0.00980515
0.00900992
0.0106743
0.008398
0.0112819
0.00822498
0.0110606
0.00893392
0.0104388
0.0100486
0.00959386
0.0101738
0.00967209
0.00926183
0.0105906
0.00892242
0.0105982
0.00923891
0.00976389
0.00995356
0.00990104
0.0090186
0.0108431
0.00840818
0.011453
0.00824218
0.0112398
0.00897977
0.0106281
0.0101665
0.00970132
0.0103119
0.00977315
0.00930388
0.0107429
0.00903667
0.0112842
0.00936694
0.00987049
0.01062
0.010051
0.009073
0.0115357
0.00848602
0.0121463
0.00833241
0.0119509
0.00910292
0.0113605
0.0108265
0.00987497
0.0109838
0.00993679
0.00938545
0.0114193
0.00895766
0.0108412
0.00933252
0.00984415
0.0101964
0.0100363
0.00900543
0.0110912
0.00837428
0.0116662
0.00822961
0.0114909
0.00900513
0.0108903
0.0102894
0.00982055
0.0105349
0.00992919
0.00934372
0.0109687
0.00907465
0.0126031
0.00967254
0.0100103
0.0119288
0.0103736
0.0091426
0.0128578
0.00847263
0.0134565
0.00835483
0.0133144
0.00924531
0.0127105
0.0119521
0.0100804
0.0122895
0.0102887
0.00949235
0.0127096
0.00905411
0.0121542
0.00956869
0.00992615
0.0114966
0.0102852
0.00906705
0.012417
0.00845259
0.0130081
0.00834589
0.0128858
0.00917921
0.0121718
0.0114731
0.0100458
0.0118787
0.0102358
0.00945262
0.0122947
0.00933988
0.015648
0.0102963
0.0102029
0.0149811
0.0110114
0.00927198
0.0158154
0.00868025
0.0164177
0.00859498
0.0163555
0.0096556
0.0158155
0.0146462
0.0105616
0.0153137
0.0109376
0.00963864
0.0156298
0.03358
0.0334424
0.0333187
0.0332964
0.0333512
0.0334374
0.0335439
0.033646
0.0337333
0.0337956
0.033825
0.0338376
0.0338302
0.0338078
0.0337756
0.0337375
0.0337028
0.0336523
0.0336139
0.0336108
0.0334559
0.0333103
0.033178
0.0331546
0.0332169
0.0333078
0.0334194
0.033523
0.0336006
0.0336402
0.0336484
0.033632
0.0336154
0.0335914
0.033568
0.0335493
0.0335271
0.0335042
0.0334758
0.0334823
0.0329311
0.0327778
0.0326487
0.032627
0.0327033
0.0328189
0.0329498
0.0330574
0.0331246
0.0331359
0.0331034
0.0330514
0.033012
0.0329824
0.0329758
0.0329795
0.0329851
0.032983
0.0329682
0.0329742
0.0328602
0.0326924
0.0325552
0.0325381
0.0326366
0.0327812
0.0329406
0.0330694
0.0331351
0.0331201
0.033052
0.032949
0.0328872
0.032843
0.0328533
0.0328777
0.0329067
0.0329319
0.0329273
0.0329172
0.0327432
0.0325565
0.0324023
0.0323855
0.0325099
0.0326873
0.032882
0.0330339
0.0330993
0.0330534
0.0329405
0.0327862
0.0326903
0.0326262
0.0326456
0.0326922
0.0327508
0.0327914
0.0328038
0.0328091
0.0326457
0.0324375
0.0322574
0.0322495
0.0324093
0.0326274
0.032849
0.0330145
0.0330756
0.032997
0.0328409
0.0326263
0.0325001
0.0324158
0.0324437
0.0325011
0.0325708
0.0326266
0.0326588
0.0326957
0.0322444
0.032029
0.0318411
0.0318448
0.0320206
0.0322522
0.0324822
0.0326525
0.0326982
0.0325908
0.0323871
0.0321213
0.0319675
0.0318677
0.0319047
0.0319717
0.0320711
0.0321467
0.0322146
0.0322846
0.0317409
0.0315278
0.0313362
0.0312988
0.0314336
0.0316298
0.0318461
0.0320179
0.0320596
0.0319312
0.0316895
0.03138
0.0311926
0.0310793
0.0311319
0.0312583
0.0314152
0.0315464
0.0316649
0.0317682
0.0313701
0.0311692
0.0309552
0.0308449
0.0308733
0.031003
0.0311984
0.0313768
0.0313917
0.0312429
0.0309696
0.0306224
0.0304455
0.0303252
0.0304138
0.0306112
0.0308616
0.031067
0.031239
0.0313752
0.0310992
0.030924
0.0307041
0.0305456
0.0304868
0.030563
0.0307405
0.0308763
0.0308582
0.0306418
0.0303461
0.0300503
0.029902
0.0298066
0.029921
0.0301543
0.0304733
0.0307198
0.0309158
0.0310761
0.0307747
0.0306438
0.0304635
0.0303196
0.0302667
0.0303311
0.0304802
0.0305797
0.0304719
0.0301766
0.0298856
0.0296788
0.0296148
0.0295655
0.029687
0.0299031
0.0301789
0.0304019
0.0305837
0.0307375
0.0303807
0.0303013
0.0301848
0.0301041
0.0300966
0.0301634
0.0302862
0.0303609
0.0301695
0.0298388
0.0295838
0.0294303
0.0294656
0.0294564
0.0295686
0.029723
0.0299164
0.0300793
0.0302227
0.0303469
0.0300089
0.0299708
0.029907
0.02988
0.0299095
0.0299726
0.0300752
0.0301348
0.0299701
0.0296762
0.0294458
0.0293381
0.0293746
0.0293779
0.0294715
0.0295679
0.0296914
0.0297972
0.0298993
0.0299899
0.0297076
0.0296948
0.0296606
0.0296637
0.029712
0.0297655
0.0298507
0.0299184
0.0298096
0.0295905
0.0294061
0.02931
0.0293214
0.0293178
0.0293864
0.0294366
0.0295177
0.0295819
0.0296498
0.0297125
0.0294659
0.0294683
0.0294471
0.0294698
0.0295335
0.0295796
0.029652
0.029724
0.0296502
0.0295182
0.0293716
0.0293007
0.0292942
0.0292852
0.0293277
0.0293367
0.0293915
0.029422
0.0294621
0.0295044
0.0292721
0.0292877
0.0292671
0.0293067
0.0293899
0.0294314
0.0294978
0.0295677
0.0295046
0.0294389
0.0293219
0.0293037
0.0292831
0.0292797
0.0292999
0.0292704
0.02931
0.0293089
0.0293255
0.0293554
0.0291157
0.0291487
0.0291165
0.029171
0.0292774
0.0293147
0.0293789
0.0294556
0.0293756
0.0293865
0.0292666
0.0293075
0.0292703
0.0292832
0.0292904
0.0292262
0.0292652
0.0292331
0.0292299
0.029257
0.0289865
0.0290481
0.0289918
0.02906
0.0291936
0.0292253
0.0292911
0.0293837
0.0292737
0.0293574
0.0292065
0.0293214
0.0292493
0.0292917
0.0292927
0.029195
0.0292499
0.0291855
0.0291657
0.0292022
0.0288758
0.0289837
0.0288897
0.0289721
0.0291367
0.0291601
0.0292255
0.0293482
0.0291774
0.0293602
0.029139
0.0293418
0.0292193
0.0293036
0.0293044
0.0291703
0.0292587
0.0291585
0.0291244
0.0291857
0.0287757
0.028954
0.0288071
0.0289057
0.0291047
0.0291164
0.0291774
0.0293445
0.0290849
0.0293848
0.0290496
0.0293798
0.0291783
0.0293213
0.0293246
0.0291474
0.0292874
0.0291455
0.0290988
0.029204
0.0286798
0.0289584
0.0287405
0.0288592
0.0290946
0.0290916
0.0291405
0.0293718
0.0289849
0.0294461
0.0289443
0.0294392
0.0291267
0.0293464
0.0293525
0.0291223
0.0293327
0.0291414
0.0290823
0.0292547
0.0285829
0.0289963
0.0286868
0.0288311
0.029103
0.0290833
0.0291093
0.0294286
0.0288722
0.029543
0.0288128
0.029527
0.0290629
0.0293809
0.0293871
0.0290929
0.0293916
0.0291421
0.0290698
0.0293364
0.0284817
0.0290671
0.0286428
0.0288206
0.0291257
0.0290897
0.0290781
0.0295142
0.0287411
0.029683
0.0286555
0.0296476
0.0289856
0.0294262
0.0294277
0.0290585
0.0294614
0.0291452
0.029057
0.0294474
0.0283749
0.0291696
0.0286062
0.0288274
0.0291588
0.0291098
0.0290419
0.0296271
0.0285876
0.0298679
0.0284685
0.0298039
0.0288942
0.0294838
0.0294734
0.0290209
0.02954
0.0291498
0.029041
0.029586
0.0282636
0.0293022
0.0285757
0.0288525
0.0291984
0.0291434
0.0289968
0.0297661
0.0284109
0.0300991
0.0282533
0.0299971
0.0287893
0.0295557
0.029524
0.0289844
0.0296257
0.0291571
0.0290206
0.0297496
0.0281519
0.0294624
0.0285512
0.0288977
0.0292421
0.0291919
0.0289409
0.0299293
0.0282138
0.0303755
0.0280141
0.0302265
0.028674
0.0296445
0.0295802
0.028956
0.0297173
0.0291702
0.0289964
0.0299348
0.0280471
0.0296474
0.0285343
0.0289655
0.0292888
0.0292578
0.0288741
0.0301149
0.0280029
0.0306936
0.0277597
0.0304892
0.0285543
0.0297539
0.0296438
0.0289448
0.0298147
0.0291943
0.0289713
0.0301377
0.0279593
0.0298544
0.0285279
0.0290589
0.0293401
0.0293444
0.0287993
0.0303212
0.027789
0.0310465
0.0275028
0.0307806
0.0284387
0.029889
0.0297182
0.0289615
0.029919
0.0292357
0.0289498
0.0303545
0.0278998
0.0300808
0.0285361
0.0291804
0.0294005
0.029455
0.0287216
0.0305475
0.0275861
0.0314256
0.0272595
0.0310952
0.0283383
0.0300561
0.0298081
0.0290165
0.0300324
0.0293013
0.0289381
0.0305829
0.0278799
0.0303266
0.0285636
0.0293305
0.0294782
0.0295927
0.0286483
0.0307952
0.0274095
0.0318219
0.0270472
0.0314287
0.0282654
0.0302632
0.0299201
0.0291181
0.0301607
0.0293974
0.0289426
0.0308233
0.0279089
0.0305951
0.0286148
0.0295077
0.029586
0.0297585
0.028588
0.0310689
0.0272734
0.0322282
0.0268825
0.0317799
0.0282311
0.0305199
0.0300635
0.0292713
0.0303129
0.0295286
0.0289688
0.0310802
0.02799
0.0308941
0.0286933
0.0297075
0.0297424
0.0299515
0.0285477
0.0313775
0.0271888
0.0326434
0.026778
0.032153
0.0282429
0.0308379
0.03025
0.0294748
0.0305034
0.0296966
0.0290207
0.0313644
0.028119
0.0312398
0.0288015
0.0299211
0.0299699
0.0301682
0.0285323
0.0317352
0.0271584
0.0330743
0.0267385
0.0325601
0.0283028
0.0312294
0.0304941
0.0297212
0.0307535
0.0299002
0.0290986
0.0316916
0.0282824
0.0316665
0.0289393
0.0301378
0.0303095
0.0304026
0.0285429
0.0321757
0.0271768
0.0335521
0.0267592
0.0330356
0.0284051
0.0317219
0.0308269
0.0299965
0.0311024
0.0301351
0.0292001
0.0320984
0.0284442
0.0320896
0.029095
0.0303368
0.0306783
0.0306388
0.0285665
0.0326109
0.027214
0.0339907
0.0268101
0.0334934
0.0285231
0.0322124
0.0311469
0.0302663
0.031468
0.0303833
0.029308
0.032499
0.0286745
0.0332551
0.0293454
0.0305624
0.031808
0.0309472
0.0286562
0.0337864
0.027346
0.0351573
0.0269677
0.0347013
0.02875
0.0334685
0.0322284
0.0306201
0.0326001
0.0307232
0.0294716
0.0336425
0.0286118
0.0329086
0.0293839
0.0305934
0.0314868
0.0310323
0.0285763
0.0334327
0.0271961
0.034739
0.0268408
0.0343328
0.0286561
0.0330877
0.0316728
0.0306308
0.0322298
0.0308246
0.0294521
0.0332673
0.0288412
0.0357164
0.0299605
0.0308858
0.0342581
0.0316291
0.0288081
0.0362575
0.0273811
0.0375932
0.0270822
0.0372652
0.029096
0.0360167
0.0343043
0.0311373
0.035065
0.0315013
0.0297517
0.0360651
0.0288926
0.0356263
0.0299792
0.0308647
0.034172
0.0316515
0.0287282
0.0361186
0.027377
0.037434
0.0270966
0.0371473
0.0290439
0.0357085
0.0339876
0.0311435
0.0349229
0.0314972
0.0296613
0.0359018
0.029409
0.0407661
0.031147
0.0313326
0.0393224
0.0328625
0.0291195
0.0411479
0.027828
0.0424859
0.0276005
0.0423276
0.0299461
0.0411903
0.0387383
0.032144
0.0401091
0.0327875
0.0301299
0.0408982
0.0559769
0.0558091
0.0556503
0.0555971
0.0556328
0.0557021
0.0558056
0.0559176
0.0560152
0.0560965
0.0561482
0.0561791
0.0561933
0.0561878
0.056166
0.0561367
0.0561075
0.0560629
0.0560229
0.0560191
0.0557197
0.0555517
0.0553975
0.0553484
0.0553962
0.055486
0.0556004
0.0557083
0.0557978
0.0558484
0.0558721
0.055875
0.0558732
0.0558578
0.0558399
0.0558273
0.0558072
0.0557864
0.0557588
0.0557621
0.0550283
0.0548533
0.0546976
0.0546595
0.0547344
0.0548524
0.0549916
0.0551105
0.0551832
0.0552002
0.055178
0.0551348
0.0551011
0.0550731
0.0550722
0.0550787
0.0550862
0.0550966
0.0550845
0.0550794
0.0548514
0.0546569
0.0544964
0.0544618
0.0545624
0.0547232
0.0549016
0.0550432
0.0551137
0.055094
0.0550294
0.0549271
0.0548625
0.0548138
0.0548275
0.0548641
0.0549076
0.0549418
0.0549434
0.0549331
0.0546525
0.0544259
0.0542345
0.0541993
0.0543342
0.0545425
0.0547654
0.0549332
0.0550002
0.0549444
0.054826
0.054655
0.0545499
0.0544778
0.0545101
0.0545714
0.0546494
0.0547181
0.0547404
0.0547384
0.0544503
0.0541878
0.053959
0.0539293
0.0541115
0.0543657
0.0546283
0.0548191
0.0548769
0.0547759
0.0546046
0.0543611
0.0542181
0.0541229
0.0541673
0.0542491
0.0543573
0.0544405
0.0544927
0.0545274
0.0538724
0.0535883
0.0533383
0.0533135
0.0535236
0.0538045
0.0540825
0.0542807
0.0543193
0.0541838
0.0539509
0.0536427
0.0534631
0.0533479
0.0534078
0.053517
0.0536503
0.0537661
0.0538597
0.0539363
0.0531461
0.0528669
0.0526024
0.052546
0.0526924
0.0529386
0.0532047
0.0534014
0.053435
0.0532675
0.0529929
0.0526193
0.0524087
0.0522778
0.0523636
0.0525257
0.0527481
0.0529361
0.0530912
0.0532085
0.0525679
0.0522936
0.0520065
0.0518519
0.0518754
0.0520408
0.0522797
0.0524715
0.0524962
0.0523029
0.0519821
0.0515842
0.0513591
0.0512184
0.0513395
0.0515955
0.0519421
0.0522206
0.0524421
0.0525964
0.0521062
0.0518653
0.0515717
0.0513464
0.0512847
0.0513871
0.0515924
0.0517655
0.0517096
0.0514496
0.0511164
0.0507431
0.050586
0.050472
0.0506201
0.0509384
0.0513391
0.0516692
0.0519215
0.0521063
0.0516006
0.0514129
0.0511627
0.0509652
0.0508978
0.0509813
0.0511621
0.0512737
0.0511103
0.0507608
0.0504249
0.0501639
0.0501224
0.0500588
0.0502169
0.0504988
0.0508667
0.051169
0.0514046
0.0515827
0.0510222
0.0508967
0.0507248
0.0506056
0.0505937
0.0506826
0.0508374
0.0508997
0.0506872
0.0502827
0.0499815
0.0498329
0.0498557
0.0498362
0.0499803
0.0501852
0.0504515
0.0506776
0.0508646
0.0510077
0.0504726
0.0503976
0.0502933
0.0502454
0.050284
0.0503732
0.0505054
0.0505735
0.0503681
0.0500055
0.0497439
0.0496272
0.0496734
0.0496695
0.049789
0.0499184
0.0500934
0.0502436
0.0503762
0.0504772
0.0500136
0.0499696
0.0499053
0.0499016
0.0499703
0.0500527
0.0501702
0.0502554
0.0501181
0.0498474
0.0496389
0.0495313
0.0495479
0.0495371
0.0496249
0.0496925
0.0498084
0.0499006
0.0499867
0.0500509
0.0496379
0.0496125
0.0495658
0.0495919
0.0496859
0.0497622
0.0498698
0.0499684
0.0498775
0.0497175
0.0495495
0.0494676
0.0494619
0.0494463
0.049502
0.0495146
0.0495933
0.0496384
0.0496864
0.0497227
0.0493326
0.049323
0.0492767
0.0493277
0.0494514
0.0495238
0.0496282
0.0497307
0.0496562
0.0495833
0.0494462
0.0494256
0.0494025
0.0493968
0.0494254
0.0493869
0.0494447
0.0494465
0.0494624
0.0494811
0.0490834
0.0490959
0.0490335
0.0491061
0.0492645
0.0493326
0.0494369
0.0495517
0.0494541
0.0494811
0.0493349
0.0493902
0.0493482
0.049367
0.0493802
0.0492951
0.0493523
0.0493117
0.0493009
0.0493149
0.0488765
0.0489268
0.0488315
0.0489242
0.0491229
0.0491839
0.0492919
0.0494289
0.0492889
0.0494087
0.0492175
0.0493755
0.0492896
0.0493509
0.0493577
0.0492268
0.049306
0.0492213
0.049188
0.0492141
0.048699
0.0488127
0.048666
0.0487793
0.0490241
0.0490734
0.0491819
0.0493591
0.049135
0.0493855
0.0490967
0.0493768
0.0492242
0.0493452
0.0493534
0.0491722
0.0492979
0.0491639
0.0491114
0.0491714
0.0485398
0.0487517
0.0485324
0.0486688
0.0489648
0.0489969
0.0491001
0.0493371
0.0489894
0.0493984
0.048952
0.0494075
0.0491484
0.049352
0.0493651
0.0491235
0.0493217
0.0491297
0.0490602
0.0491814
0.0483895
0.0487427
0.0484256
0.0485901
0.0489409
0.0489502
0.0490375
0.0493613
0.0488364
0.0494659
0.0487885
0.0494724
0.0490612
0.0493728
0.0493912
0.0490749
0.0493722
0.0491107
0.0490251
0.049241
0.0482406
0.0487851
0.048341
0.048541
0.0489472
0.0489296
0.0489856
0.0494299
0.0486676
0.0495874
0.0485918
0.0495809
0.0489599
0.0494098
0.0494301
0.0490226
0.0494452
0.0491011
0.0489982
0.0493482
0.0480878
0.0488782
0.0482739
0.0485198
0.048978
0.048932
0.0489359
0.0495414
0.0484746
0.0497728
0.0483606
0.0497391
0.048842
0.0494649
0.0494807
0.0489653
0.0495371
0.049097
0.0489735
0.049501
0.0479286
0.0490207
0.0482207
0.0485261
0.0490274
0.0489556
0.0488808
0.0496944
0.0482509
0.0500256
0.0480893
0.0499515
0.0487059
0.0495405
0.0495419
0.0489055
0.0496452
0.0490972
0.0489465
0.0496972
0.0477641
0.0492106
0.0481793
0.0485609
0.0490904
0.0490003
0.0488147
0.0498871
0.0479946
0.0503486
0.0477786
0.0502207
0.0485524
0.0496397
0.049614
0.048849
0.0497678
0.0491034
0.0489154
0.0499333
0.0475997
0.0494448
0.0481493
0.0486267
0.0491633
0.049068
0.0487341
0.0501177
0.0477089
0.0507413
0.0474337
0.0505463
0.0483855
0.0497668
0.0496985
0.048806
0.0499038
0.0491202
0.048881
0.0502051
0.0474449
0.0497197
0.0481325
0.0487271
0.0492448
0.0491624
0.0486393
0.0503846
0.0474026
0.0511997
0.0470659
0.0509254
0.0482133
0.0499279
0.0497985
0.0487897
0.0500538
0.0491551
0.0488472
0.0505076
0.0473138
0.0500319
0.0481327
0.0488663
0.049337
0.0492885
0.0485343
0.0506867
0.0470905
0.0517158
0.0466927
0.0513529
0.0480481
0.050131
0.0499192
0.0488152
0.0502196
0.0492174
0.0488205
0.0508363
0.0472224
0.050378
0.0481552
0.0490477
0.0494463
0.0494517
0.0484268
0.0510246
0.0467921
0.0522785
0.0463359
0.0518222
0.0479055
0.050386
0.0500676
0.0488973
0.050405
0.0493173
0.04881
0.0511885
0.0471871
0.0507583
0.0482066
0.0492725
0.0495841
0.0496569
0.0483273
0.0514009
0.046529
0.0528759
0.04602
0.0523281
0.047803
0.0507048
0.0502532
0.049048
0.050618
0.0494639
0.0488245
0.0515653
0.0472215
0.0511772
0.0482928
0.0495385
0.0497683
0.049906
0.0482476
0.0518228
0.0463217
0.0534981
0.0457685
0.0528693
0.0477564
0.0511012
0.0504889
0.0492745
0.0508712
0.049664
0.0488722
0.0519729
0.0473307
0.0516456
0.0484187
0.0498391
0.050024
0.0501982
0.0481978
0.0523024
0.0461857
0.0541428
0.0455996
0.0534511
0.0477766
0.0515907
0.0507905
0.0495754
0.0511842
0.0499201
0.0489585
0.0524257
0.0475098
0.0521843
0.0485878
0.0501624
0.0503826
0.0505284
0.0481843
0.0528583
0.046126
0.054818
0.0455213
0.054089
0.0478662
0.05219
0.051177
0.0499404
0.0515851
0.0502304
0.0490833
0.0529442
0.0477412
0.0528356
0.0488003
0.0504933
0.0508955
0.0508887
0.0482085
0.053531
0.0461365
0.0555603
0.045529
0.054824
0.0480188
0.0529318
0.0516862
0.0503507
0.052123
0.050589
0.0492431
0.0535728
0.0479814
0.0535227
0.0490437
0.0508053
0.0514892
0.0512597
0.0482555
0.0542386
0.046183
0.0562904
0.045589
0.0555779
0.0482034
0.0537168
0.0522216
0.0507647
0.0527253
0.050975
0.0494172
0.0542338
0.0482979
0.05503
0.0494012
0.0511431
0.0529327
0.0517146
0.0483802
0.0557615
0.04634
0.0578127
0.0457756
0.0571541
0.0485123
0.0553435
0.0535897
0.0512679
0.0541768
0.0514669
0.0496522
0.0557107
0.0482903
0.0549682
0.0495368
0.0512572
0.0528815
0.0519317
0.0483232
0.0556981
0.0461953
0.0576851
0.0456627
0.0570967
0.0484836
0.0552712
0.0532542
0.0514018
0.0540856
0.0517151
0.0496937
0.0556167
0.0486314
0.0584016
0.0503018
0.0516816
0.0562589
0.0527299
0.0486238
0.0591335
0.0464416
0.0611514
0.0459753
0.0606619
0.0490474
0.0588237
0.0564104
0.0520711
0.0575039
0.0525762
0.0500613
0.0589923
0.0487637
0.0586803
0.0504234
0.051715
0.0565482
0.0529015
0.0486002
0.059389
0.0465147
0.0613981
0.0460867
0.0609879
0.049152
0.0589698
0.0564777
0.0522872
0.0578254
0.0528123
0.0501176
0.059263
0.0494241
0.0645927
0.0518731
0.0523399
0.0624631
0.0543829
0.0490746
0.0651263
0.0470445
0.0671433
0.0466728
0.0668806
0.0502045
0.0652043
0.0618546
0.0534564
0.0636918
0.0543018
0.0506116
0.0648994
0.077929
0.0777577
0.0775885
0.0775134
0.0775241
0.0775775
0.0776644
0.0777598
0.0778545
0.0779387
0.0779993
0.0780509
0.0780822
0.0780922
0.0780871
0.0780702
0.0780509
0.0780143
0.0779841
0.077978
0.0776071
0.0774378
0.0772719
0.0772074
0.0772386
0.0773078
0.0774063
0.0775045
0.0775869
0.0776398
0.0776724
0.0776854
0.0776988
0.0776958
0.0776897
0.0776872
0.0776752
0.0776678
0.077647
0.0776498
0.0768079
0.0766339
0.076477
0.0764224
0.0764799
0.076586
0.0767126
0.0768175
0.0768841
0.0769
0.0768825
0.0768491
0.076827
0.0768073
0.0768143
0.0768316
0.0768513
0.0768703
0.0768661
0.0768685
0.0765549
0.0763557
0.0761832
0.0761333
0.0762231
0.0763721
0.0765386
0.0766697
0.0767308
0.0767088
0.0766488
0.0765506
0.0764988
0.0764569
0.076485
0.0765296
0.0765837
0.0766402
0.0766519
0.0766371
0.076278
0.0760369
0.0758278
0.0757733
0.0759008
0.0761009
0.0763182
0.0764791
0.0765354
0.0764691
0.0763551
0.0761913
0.076099
0.0760339
0.0760814
0.0761602
0.0762595
0.0763448
0.0763804
0.0763794
0.0759818
0.0756901
0.0754301
0.0753785
0.0755555
0.0758176
0.0760804
0.0762647
0.076314
0.0762029
0.0760375
0.0757959
0.0756686
0.0755799
0.0756463
0.0757484
0.0758752
0.0759871
0.0760489
0.0760796
0.0752696
0.0749494
0.0746612
0.0746149
0.0748177
0.0751102
0.0753961
0.0755949
0.0756296
0.075482
0.0752568
0.0749499
0.0747848
0.0746719
0.0747542
0.0748782
0.0750507
0.0751959
0.0753011
0.0753708
0.074387
0.0740544
0.0737474
0.0736477
0.073802
0.0740605
0.0743386
0.0745489
0.0745795
0.0744119
0.0741491
0.0737764
0.0735701
0.0734315
0.0735323
0.0737288
0.0739828
0.0742006
0.0743739
0.0744736
0.0736296
0.0733092
0.072968
0.0727741
0.0728
0.07298
0.0732356
0.073448
0.0734646
0.0732779
0.0729761
0.0725747
0.0723696
0.0722103
0.072348
0.0726315
0.0730075
0.0733242
0.0735596
0.0737022
0.0730121
0.0727192
0.0723666
0.0721083
0.0720281
0.0721413
0.0723668
0.0725374
0.0725128
0.0722508
0.071945
0.0716062
0.0714379
0.0712948
0.0714534
0.0717818
0.0722431
0.0726128
0.0728817
0.0730504
0.0723568
0.0721166
0.0718113
0.0715723
0.071496
0.071593
0.0717855
0.071911
0.071774
0.0714287
0.0711372
0.0709145
0.0708571
0.0707572
0.0709154
0.0712153
0.0716252
0.0719647
0.0722149
0.0723773
0.0716327
0.0714561
0.0712346
0.0710819
0.0710666
0.0711713
0.0713379
0.0714294
0.0712015
0.0708035
0.0705591
0.0704241
0.0704758
0.0704222
0.0705626
0.0707781
0.0710784
0.0713348
0.0715319
0.0716577
0.0709416
0.0708176
0.0706707
0.0706002
0.0706443
0.0707537
0.0709049
0.0709894
0.0707869
0.070428
0.0702117
0.0701281
0.0701837
0.070152
0.0702682
0.0704014
0.0706013
0.0707728
0.0709094
0.0709897
0.0703528
0.0702611
0.0701593
0.0701429
0.0702265
0.0703335
0.070476
0.0705825
0.0704494
0.0701834
0.0700113
0.0699286
0.069957
0.0699256
0.0700122
0.0700784
0.0702119
0.0703172
0.0704012
0.0704407
0.0698631
0.0697903
0.0697081
0.0697293
0.0698468
0.0699512
0.0700895
0.0702162
0.0701312
0.0699814
0.0698386
0.0697741
0.0697807
0.0697518
0.0698089
0.0698163
0.0699086
0.0699602
0.0700014
0.0700092
0.0694598
0.0694034
0.0693206
0.0693727
0.0695287
0.0696313
0.0697713
0.0699068
0.0698389
0.0697807
0.0696597
0.0696562
0.0696438
0.0696329
0.0696656
0.0696179
0.0696887
0.0696913
0.0696966
0.0696844
0.0691271
0.0690952
0.0689927
0.0690716
0.0692718
0.0693708
0.0695138
0.0696656
0.0695684
0.0696201
0.0694776
0.0695563
0.0695233
0.0695468
0.069567
0.0694682
0.069541
0.0694955
0.069471
0.0694537
0.0688486
0.068861
0.0687192
0.0688231
0.0690744
0.0691655
0.0693145
0.0694922
0.0693425
0.0694963
0.069294
0.0694914
0.0694083
0.0694865
0.0695032
0.0693526
0.0694539
0.0693577
0.0693083
0.0693059
0.0686091
0.0686974
0.0684948
0.0686242
0.0689338
0.0690104
0.0691611
0.0693851
0.069133
0.0694364
0.0691142
0.0694549
0.0692944
0.0694471
0.0694685
0.0692592
0.0694179
0.0692639
0.0691932
0.069232
0.0683949
0.0686024
0.0683138
0.0684715
0.0688462
0.0689005
0.0690455
0.0693388
0.0689373
0.0694253
0.0689128
0.0694618
0.0691757
0.0694296
0.0694594
0.0691778
0.0694252
0.069202
0.0691124
0.0692262
0.0681947
0.0685751
0.0681702
0.0683618
0.0688066
0.0688304
0.0689568
0.0693518
0.0687361
0.0694851
0.0686946
0.0695166
0.0690495
0.0694351
0.0694731
0.0691009
0.0694694
0.0691622
0.0690547
0.0692848
0.0679991
0.068615
0.068058
0.068292
0.0688089
0.0687952
0.0688843
0.0694221
0.0685191
0.0696149
0.0684409
0.0696299
0.0689113
0.0694653
0.0695076
0.0690232
0.0695456
0.0691371
0.0690105
0.069406
0.0678015
0.0687218
0.0679717
0.0682601
0.068846
0.0687909
0.0688174
0.0695479
0.0682749
0.0698272
0.0681491
0.069809
0.0687571
0.0695224
0.0695614
0.0689432
0.0696499
0.069122
0.0689722
0.0695877
0.0675982
0.0688942
0.0679067
0.0682652
0.0689112
0.0688151
0.0687464
0.0697278
0.0679953
0.0701268
0.0678113
0.0700597
0.0685843
0.0696094
0.0696337
0.0688633
0.0697796
0.0691156
0.0689347
0.0698279
0.06739
0.0691302
0.06786
0.0683083
0.0689984
0.0688677
0.0686642
0.0699602
0.067677
0.070518