/*--------------------------------*- C++ -*----------------------------------*\
| =========                 |                                                 |
| \\      /  F ield         | OpenFOAM: The Open Source CFD Toolbox           |
|  \\    /   O peration     | Version:  2.4.0                                 |
|   \\  /    A nd           | Web:      www.OpenFOAM.org                      |
|    \\/     M anipulation  |                                                 |
\*---------------------------------------------------------------------------*/
FoamFile
{
    version     2.0;
    format      ascii;
    class       volScalarField;
    location    "90";
    object      epsilon;
}
// * * * * * * * * * * * * * * * * * * * * * * * * * * * * * * * * * * * * * //

dimensions      [0 2 -3 0 0 0 0];

internalField   nonuniform List<scalar> 
283312
(
3.30615e-05
2.94085e-05
2.69185e-05
2.61443e-05
2.6937e-05
2.87748e-05
3.10876e-05
3.34487e-05
3.56186e-05
3.74738e-05
3.89556e-05
4.00451e-05
4.07589e-05
4.11826e-05
4.14727e-05
4.17266e-05
4.18764e-05
4.16042e-05
4.03863e-05
3.78045e-05
2.57271e-05
2.79609e-05
3.12565e-05
3.46184e-05
3.73517e-05
3.92293e-05
4.03902e-05
4.1084e-05
4.14939e-05
4.18907e-05
4.25976e-05
4.35445e-05
4.40899e-05
4.35144e-05
4.15875e-05
3.87153e-05
3.51061e-05
3.11726e-05
2.77811e-05
2.59187e-05
3.33447e-05
3.51815e-05
3.68049e-05
3.79777e-05
3.87287e-05
3.91392e-05
3.93361e-05
3.94437e-05
3.99323e-05
4.28152e-05
4.95114e-05
5.84581e-05
6.5642e-05
6.70992e-05
6.21366e-05
5.35924e-05
4.41752e-05
3.68488e-05
3.3062e-05
3.24139e-05
3.62597e-05
3.64259e-05
3.6797e-05
3.70534e-05
3.71764e-05
3.72486e-05
3.735e-05
3.75729e-05
4.01251e-05
5.13608e-05
7.2615e-05
0.0001005
0.000122911
0.00012694
0.000113777
9.11083e-05
6.81345e-05
5.11401e-05
4.15251e-05
3.74591e-05
3.86967e-05
3.71077e-05
3.65498e-05
3.63665e-05
3.63407e-05
3.63868e-05
3.64986e-05
3.68744e-05
4.32516e-05
6.55615e-05
0.000107785
0.000164689
0.000210425
0.00022491
0.000204248
0.000158345
0.000109888
7.40548e-05
5.3208e-05
4.3071e-05
3.81346e-05
3.64917e-05
3.5925e-05
3.5745e-05
3.57219e-05
3.57717e-05
3.5892e-05
3.64034e-05
4.60118e-05
7.64575e-05
0.000135031
0.000211727
0.00026587
0.000272076
0.000233649
0.000172059
0.000114706
7.52466e-05
5.3151e-05
4.26072e-05
3.79382e-05
3.6145e-05
3.55581e-05
3.54004e-05
3.54016e-05
3.54612e-05
3.55757e-05
3.61252e-05
4.62468e-05
7.46717e-05
0.000130466
0.00021966
0.000304979
0.00032749
0.000277409
0.000196425
0.000125887
7.97463e-05
5.4599e-05
4.28034e-05
3.66165e-05
3.55387e-05
3.52267e-05
3.51585e-05
3.51756e-05
3.523e-05
3.53227e-05
3.55392e-05
3.97055e-05
5.27412e-05
7.85436e-05
0.000138718
0.000217994
0.000258713
0.000229674
0.000165028
0.000106255
6.82279e-05
4.84681e-05
3.98656e-05
3.5457e-05
3.51009e-05
3.50194e-05
3.50214e-05
3.50539e-05
3.51065e-05
3.51816e-05
3.53064e-05
3.5632e-05
3.53589e-05
3.62252e-05
5.25262e-05
9.4317e-05
0.000134157
0.000130413
9.93807e-05
6.87394e-05
4.95015e-05
4.03037e-05
3.66897e-05
3.49987e-05
3.49318e-05
3.49259e-05
3.49404e-05
3.49669e-05
3.50089e-05
3.50675e-05
3.51742e-05
3.53419e-05
3.39906e-05
3.24049e-05
3.39607e-05
4.79513e-05
6.49847e-05
6.57331e-05
5.51397e-05
4.47547e-05
3.87735e-05
3.61977e-05
3.52843e-05
3.48705e-05
3.48692e-05
3.48787e-05
3.48953e-05
3.49177e-05
3.49516e-05
3.4996e-05
3.5083e-05
3.52087e-05
3.36503e-05
3.2535e-05
3.03531e-05
3.28668e-05
3.84531e-05
3.99525e-05
3.82531e-05
3.64264e-05
3.54356e-05
3.50408e-05
3.49111e-05
3.48342e-05
3.48412e-05
3.48501e-05
3.48629e-05
3.48796e-05
3.49054e-05
3.49403e-05
3.50095e-05
3.51192e-05
3.32275e-05
3.19422e-05
2.91e-05
2.8966e-05
3.15028e-05
3.35018e-05
3.438e-05
3.46902e-05
3.47941e-05
3.48265e-05
3.48356e-05
3.48165e-05
3.48239e-05
3.4832e-05
3.48426e-05
3.4856e-05
3.48754e-05
3.49017e-05
3.49521e-05
3.50398e-05
3.32596e-05
3.12086e-05
2.73567e-05
2.72103e-05
2.98369e-05
3.22966e-05
3.37488e-05
3.44284e-05
3.46965e-05
3.47867e-05
3.48132e-05
3.48054e-05
3.48118e-05
3.48182e-05
3.48265e-05
3.48368e-05
3.48512e-05
3.48713e-05
3.49073e-05
3.50124e-05
3.3575e-05
3.2401e-05
2.87742e-05
2.81627e-05
3.02457e-05
3.24155e-05
3.37696e-05
3.44242e-05
3.46867e-05
3.47759e-05
3.48023e-05
3.47977e-05
3.48031e-05
3.48084e-05
3.48151e-05
3.48234e-05
3.48343e-05
3.48495e-05
3.48742e-05
3.49651e-05
3.31279e-05
3.05021e-05
2.70604e-05
2.7587e-05
3.02121e-05
3.24855e-05
3.38199e-05
3.4445e-05
3.46903e-05
3.47721e-05
3.47957e-05
3.47915e-05
3.47958e-05
3.47999e-05
3.48052e-05
3.48118e-05
3.482e-05
3.48294e-05
3.4842e-05
3.48477e-05
3.15691e-05
2.58093e-05
2.36383e-05
2.59856e-05
2.96819e-05
3.2435e-05
3.38796e-05
3.44896e-05
3.47074e-05
3.4774e-05
3.47917e-05
3.47875e-05
3.479e-05
3.47931e-05
3.47974e-05
3.48028e-05
3.48097e-05
3.48173e-05
3.48266e-05
3.48322e-05
3.45513e-05
3.43279e-05
3.43742e-05
3.45356e-05
3.4649e-05
3.47038e-05
3.47529e-05
3.47822e-05
3.47926e-05
3.47938e-05
3.47928e-05
3.47823e-05
3.47843e-05
3.47867e-05
3.47902e-05
3.47947e-05
3.48004e-05
3.48064e-05
3.48135e-05
3.48209e-05
3.4818e-05
3.4812e-05
3.48113e-05
3.48163e-05
3.48177e-05
3.48139e-05
3.48075e-05
3.48009e-05
3.47951e-05
3.47908e-05
3.47881e-05
3.47776e-05
3.47792e-05
3.47811e-05
3.47839e-05
3.47878e-05
3.47925e-05
3.47975e-05
3.48029e-05
3.48072e-05
3.48108e-05
3.48099e-05
3.48095e-05
3.48117e-05
3.48109e-05
3.48076e-05
3.4802e-05
3.4796e-05
3.47906e-05
3.47864e-05
3.47837e-05
3.4773e-05
3.47743e-05
3.47758e-05
3.47782e-05
3.47814e-05
3.47855e-05
3.47899e-05
3.47947e-05
3.47988e-05
3.48021e-05
3.48021e-05
3.48015e-05
3.48021e-05
3.48013e-05
3.47987e-05
3.47943e-05
3.47895e-05
3.4785e-05
3.47815e-05
3.4779e-05
3.47688e-05
3.47698e-05
3.4771e-05
3.47729e-05
3.47757e-05
3.47793e-05
3.47829e-05
3.47869e-05
3.47901e-05
3.47931e-05
3.47937e-05
3.47941e-05
3.47951e-05
3.47945e-05
3.47923e-05
3.47886e-05
3.47845e-05
3.47805e-05
3.47773e-05
3.47749e-05
3.47647e-05
3.47656e-05
3.47665e-05
3.47681e-05
3.47705e-05
3.47737e-05
3.47769e-05
3.47805e-05
3.47836e-05
3.47863e-05
3.47872e-05
3.47876e-05
3.4788e-05
3.47873e-05
3.47855e-05
3.47826e-05
3.47792e-05
3.47758e-05
3.4773e-05
3.47708e-05
3.47609e-05
3.47617e-05
3.47624e-05
3.47637e-05
3.47658e-05
3.47685e-05
3.47714e-05
3.47745e-05
3.47771e-05
3.47796e-05
3.47807e-05
3.47815e-05
3.47822e-05
3.47818e-05
3.47802e-05
3.47777e-05
3.47748e-05
3.47718e-05
3.47691e-05
3.47671e-05
3.47573e-05
3.47581e-05
3.47586e-05
3.47597e-05
3.47615e-05
3.47639e-05
3.47665e-05
3.47693e-05
3.47717e-05
3.4774e-05
3.47753e-05
3.4776e-05
3.47765e-05
3.47761e-05
3.47749e-05
3.47728e-05
3.47703e-05
3.47677e-05
3.47654e-05
3.47635e-05
3.4754e-05
3.47547e-05
3.47551e-05
3.47561e-05
3.47576e-05
3.47598e-05
3.4762e-05
3.47645e-05
3.47667e-05
3.47688e-05
3.47701e-05
3.4771e-05
3.47716e-05
3.47714e-05
3.47704e-05
3.47686e-05
3.47664e-05
3.47641e-05
3.4762e-05
3.47602e-05
3.4751e-05
3.47516e-05
3.4752e-05
3.47527e-05
3.47541e-05
3.4756e-05
3.4758e-05
3.47603e-05
3.47623e-05
3.47643e-05
3.47655e-05
3.47665e-05
3.47671e-05
3.47669e-05
3.47661e-05
3.47646e-05
3.47627e-05
3.47607e-05
3.47587e-05
3.47571e-05
3.47482e-05
3.47488e-05
3.47491e-05
3.47497e-05
3.47509e-05
3.47526e-05
3.47545e-05
3.47565e-05
3.47583e-05
3.47601e-05
3.47614e-05
3.47624e-05
3.4763e-05
3.4763e-05
3.47624e-05
3.47611e-05
3.47594e-05
3.47576e-05
3.47558e-05
3.47542e-05
3.47457e-05
3.47463e-05
3.47465e-05
3.4747e-05
3.47481e-05
3.47496e-05
3.47513e-05
3.47531e-05
3.47548e-05
3.47565e-05
3.47577e-05
3.47587e-05
3.47593e-05
3.47594e-05
3.47589e-05
3.47578e-05
3.47564e-05
3.47548e-05
3.47531e-05
3.47517e-05
3.47433e-05
3.47439e-05
3.47441e-05
3.47446e-05
3.47455e-05
3.47469e-05
3.47484e-05
3.47501e-05
3.47517e-05
3.47532e-05
3.47545e-05
3.47555e-05
3.47561e-05
3.47562e-05
3.47559e-05
3.47549e-05
3.47537e-05
3.47522e-05
3.47507e-05
3.47493e-05
3.47413e-05
3.47419e-05
3.4742e-05
3.47424e-05
3.47433e-05
3.47446e-05
3.47459e-05
3.47475e-05
3.47489e-05
3.47504e-05
3.47516e-05
3.47526e-05
3.47532e-05
3.47534e-05
3.47531e-05
3.47524e-05
3.47513e-05
3.47499e-05
3.47485e-05
3.47472e-05
3.47394e-05
3.474e-05
3.47401e-05
3.47405e-05
3.47413e-05
3.47424e-05
3.47437e-05
3.47451e-05
3.47464e-05
3.47478e-05
3.4749e-05
3.475e-05
3.47506e-05
3.47509e-05
3.47507e-05
3.47501e-05
3.47491e-05
3.47479e-05
3.47466e-05
3.47453e-05
3.47378e-05
3.47384e-05
3.47385e-05
3.47388e-05
3.47396e-05
3.47406e-05
3.47418e-05
3.47431e-05
3.47443e-05
3.47457e-05
3.47468e-05
3.47478e-05
3.47484e-05
3.47487e-05
3.47486e-05
3.47481e-05
3.47472e-05
3.47462e-05
3.47449e-05
3.47437e-05
3.47364e-05
3.4737e-05
3.4737e-05
3.47373e-05
3.4738e-05
3.4739e-05
3.474e-05
3.47413e-05
3.47424e-05
3.47437e-05
3.47448e-05
3.47458e-05
3.47464e-05
3.47468e-05
3.47468e-05
3.47463e-05
3.47456e-05
3.47446e-05
3.47434e-05
3.47422e-05
3.47352e-05
3.47358e-05
3.47359e-05
3.47361e-05
3.47367e-05
3.47377e-05
3.47387e-05
3.47398e-05
3.47409e-05
3.47421e-05
3.47432e-05
3.47442e-05
3.47448e-05
3.47452e-05
3.47453e-05
3.47449e-05
3.47442e-05
3.47433e-05
3.47422e-05
3.47411e-05
3.47341e-05
3.47347e-05
3.47347e-05
3.47349e-05
3.47356e-05
3.47365e-05
3.47374e-05
3.47385e-05
3.47395e-05
3.47407e-05
3.47417e-05
3.47427e-05
3.47434e-05
3.47438e-05
3.47439e-05
3.47436e-05
3.4743e-05
3.47421e-05
3.4741e-05
3.47399e-05
3.47333e-05
3.47339e-05
3.4734e-05
3.47341e-05
3.47347e-05
3.47356e-05
3.47364e-05
3.47375e-05
3.47385e-05
3.47396e-05
3.47406e-05
3.47416e-05
3.47423e-05
3.47428e-05
3.4743e-05
3.47427e-05
3.47422e-05
3.47413e-05
3.47403e-05
3.47392e-05
3.47325e-05
3.47331e-05
3.47332e-05
3.47333e-05
3.47339e-05
3.47347e-05
3.47355e-05
3.47365e-05
3.47375e-05
3.47386e-05
3.47396e-05
3.47406e-05
3.47413e-05
3.47418e-05
3.4742e-05
3.47418e-05
3.47413e-05
3.47405e-05
3.47394e-05
3.47384e-05
3.47322e-05
3.47328e-05
3.47328e-05
3.47329e-05
3.47335e-05
3.47343e-05
3.4735e-05
3.4736e-05
3.47369e-05
3.4738e-05
3.4739e-05
3.474e-05
3.47408e-05
3.47413e-05
3.47416e-05
3.47414e-05
3.4741e-05
3.47402e-05
3.47391e-05
3.47381e-05
3.47318e-05
3.47324e-05
3.47324e-05
3.47326e-05
3.47331e-05
3.47339e-05
3.47346e-05
3.47356e-05
3.47364e-05
3.47376e-05
3.47385e-05
3.47396e-05
3.47403e-05
3.47408e-05
3.47412e-05
3.4741e-05
3.47406e-05
3.47399e-05
3.47388e-05
3.47377e-05
3.47636e-05
3.47705e-05
3.47636e-05
3.47626e-05
3.47718e-05
3.47658e-05
3.4765e-05
3.47767e-05
3.47691e-05
3.47805e-05
3.47715e-05
3.47835e-05
3.47735e-05
3.47846e-05
3.47873e-05
3.47741e-05
3.47823e-05
3.47721e-05
3.47692e-05
3.4777e-05
3.43466e-05
3.06054e-05
2.82399e-05
2.76835e-05
2.86674e-05
3.06236e-05
3.29725e-05
3.53291e-05
3.74769e-05
3.93017e-05
4.07512e-05
4.18157e-05
4.25244e-05
4.29793e-05
4.33476e-05
4.37144e-05
4.39619e-05
4.36894e-05
4.23036e-05
3.94149e-05
2.70999e-05
2.96307e-05
3.30491e-05
3.63683e-05
3.89754e-05
4.07235e-05
4.18067e-05
4.24609e-05
4.28491e-05
4.32414e-05
4.39646e-05
4.49229e-05
4.54351e-05
4.47636e-05
4.26883e-05
3.96277e-05
3.58304e-05
3.18003e-05
2.84962e-05
2.69132e-05
3.47991e-05
3.66164e-05
3.81851e-05
3.93027e-05
4.00097e-05
4.0388e-05
4.05717e-05
4.06792e-05
4.11883e-05
4.42035e-05
5.10597e-05
5.9998e-05
6.69826e-05
6.81589e-05
6.29767e-05
5.42812e-05
4.48825e-05
3.775e-05
3.42196e-05
3.37657e-05
3.75088e-05
3.76901e-05
3.8043e-05
3.82758e-05
3.83848e-05
3.84567e-05
3.85642e-05
3.87974e-05
4.14139e-05
5.28454e-05
7.37848e-05
0.000100839
0.000122297
0.000125654
0.000112532
9.02959e-05
6.79294e-05
5.15244e-05
4.23612e-05
3.85665e-05
3.97886e-05
3.82579e-05
3.77218e-05
3.7548e-05
3.75293e-05
3.75809e-05
3.77002e-05
3.80861e-05
4.4569e-05
6.6688e-05
0.000107634
0.000162969
0.000207361
0.000221156
0.000200167
0.000154901
0.000107892
7.35203e-05
5.3615e-05
4.3941e-05
3.91774e-05
3.76142e-05
3.70831e-05
3.69189e-05
3.69053e-05
3.69613e-05
3.70884e-05
3.76088e-05
4.73164e-05
7.71523e-05
0.000134137
0.000208757
0.000260526
0.000265563
0.000227313
0.000167316
0.000112243
7.45952e-05
5.34982e-05
4.34205e-05
3.89294e-05
3.72515e-05
3.67132e-05
3.65748e-05
3.65844e-05
3.66485e-05
3.67678e-05
3.73264e-05
4.75557e-05
7.54935e-05
0.000130357
0.000217511
0.000298091
0.000316395
0.000266117
0.000188441
0.000121874
7.84333e-05
5.46552e-05
4.34912e-05
3.76661e-05
3.66728e-05
3.6392e-05
3.6335e-05
3.63572e-05
3.64149e-05
3.65113e-05
3.67332e-05
4.09748e-05
5.42638e-05
8.02895e-05
0.000139464
0.00021444
0.000250791
0.000220695
0.000158714
0.000103272
6.74216e-05
4.8765e-05
4.0679e-05
3.65867e-05
3.62646e-05
3.61945e-05
3.62006e-05
3.62352e-05
3.62899e-05
3.63673e-05
3.64963e-05
3.68321e-05
3.66214e-05
3.77199e-05
5.39088e-05
9.44787e-05
0.000131529
0.000126855
9.70729e-05
6.79764e-05
4.9745e-05
4.10799e-05
3.77142e-05
3.61649e-05
3.61061e-05
3.6103e-05
3.61191e-05
3.61468e-05
3.61906e-05
3.6251e-05
3.63615e-05
3.65354e-05
3.51909e-05
3.37153e-05
3.52447e-05
4.8974e-05
6.51829e-05
6.56006e-05
5.52986e-05
4.53387e-05
3.96686e-05
3.72614e-05
3.64216e-05
3.6046e-05
3.60459e-05
3.60562e-05
3.60736e-05
3.60968e-05
3.6132e-05
3.61776e-05
3.62676e-05
3.63976e-05
3.48486e-05
3.38963e-05
3.15994e-05
3.40817e-05
3.95471e-05
4.09355e-05
3.92517e-05
3.74971e-05
3.65643e-05
3.61992e-05
3.60814e-05
3.60108e-05
3.60178e-05
3.60271e-05
3.60404e-05
3.60579e-05
3.60847e-05
3.61205e-05
3.61921e-05
3.63057e-05
3.43959e-05
3.33084e-05
3.0371e-05
3.02218e-05
3.27699e-05
3.47345e-05
3.55818e-05
3.58767e-05
3.59738e-05
3.60033e-05
3.60113e-05
3.59931e-05
3.60004e-05
3.60086e-05
3.60197e-05
3.60336e-05
3.60536e-05
3.60808e-05
3.61327e-05
3.62238e-05
3.44426e-05
3.2513e-05
2.85321e-05
2.84313e-05
3.112e-05
3.35688e-05
3.49834e-05
3.56323e-05
3.58832e-05
3.59658e-05
3.59896e-05
3.59817e-05
3.59879e-05
3.59945e-05
3.60031e-05
3.60138e-05
3.60288e-05
3.60495e-05
3.60865e-05
3.61964e-05
3.48017e-05
3.38372e-05
3.00526e-05
2.94234e-05
3.15384e-05
3.36897e-05
3.50047e-05
3.56281e-05
3.58732e-05
3.59548e-05
3.59784e-05
3.59738e-05
3.5979e-05
3.59843e-05
3.59913e-05
3.59999e-05
3.60111e-05
3.60269e-05
3.60522e-05
3.61477e-05
3.4328e-05
3.17935e-05
2.8251e-05
2.88336e-05
3.15025e-05
3.37566e-05
3.5052e-05
3.5647e-05
3.58758e-05
3.59505e-05
3.59716e-05
3.59674e-05
3.59714e-05
3.59756e-05
3.59811e-05
3.59879e-05
3.59964e-05
3.6006e-05
3.6019e-05
3.60248e-05
3.25871e-05
2.66234e-05
2.45508e-05
2.71307e-05
3.09482e-05
3.37002e-05
3.51074e-05
3.56883e-05
3.58909e-05
3.59515e-05
3.59671e-05
3.59629e-05
3.59653e-05
3.59685e-05
3.59729e-05
3.59786e-05
3.59856e-05
3.59934e-05
3.60029e-05
3.60085e-05
3.57172e-05
3.54975e-05
3.55575e-05
3.57243e-05
3.5834e-05
3.58865e-05
3.59328e-05
3.59594e-05
3.59681e-05
3.59686e-05
3.59673e-05
3.59576e-05
3.59594e-05
3.59619e-05
3.59655e-05
3.59702e-05
3.59759e-05
3.59821e-05
3.59894e-05
3.59969e-05
3.59937e-05
3.59877e-05
3.59871e-05
3.59922e-05
3.59932e-05
3.5989e-05
3.59822e-05
3.59753e-05
3.59694e-05
3.59651e-05
3.59624e-05
3.59527e-05
3.59541e-05
3.5956e-05
3.5959e-05
3.59629e-05
3.59678e-05
3.59729e-05
3.59784e-05
3.59826e-05
3.59863e-05
3.5985e-05
3.59847e-05
3.59868e-05
3.59859e-05
3.59822e-05
3.59764e-05
3.59702e-05
3.59647e-05
3.59605e-05
3.59578e-05
3.59479e-05
3.59491e-05
3.59506e-05
3.5953e-05
3.59563e-05
3.59605e-05
3.59649e-05
3.59699e-05
3.5974e-05
3.59772e-05
3.5977e-05
3.59763e-05
3.59769e-05
3.59759e-05
3.59732e-05
3.59686e-05
3.59636e-05
3.59591e-05
3.59555e-05
3.59531e-05
3.59436e-05
3.59445e-05
3.59456e-05
3.59476e-05
3.59504e-05
3.5954e-05
3.59577e-05
3.59618e-05
3.5965e-05
3.59679e-05
3.59684e-05
3.59688e-05
3.59698e-05
3.5969e-05
3.59666e-05
3.59627e-05
3.59585e-05
3.59545e-05
3.59512e-05
3.59488e-05
3.59394e-05
3.59401e-05
3.5941e-05
3.59426e-05
3.5945e-05
3.59482e-05
3.59515e-05
3.59552e-05
3.59582e-05
3.59609e-05
3.59617e-05
3.5962e-05
3.59624e-05
3.59616e-05
3.59597e-05
3.59566e-05
3.59531e-05
3.59497e-05
3.59468e-05
3.59446e-05
3.59355e-05
3.59361e-05
3.59367e-05
3.59381e-05
3.59401e-05
3.59428e-05
3.59457e-05
3.59489e-05
3.59515e-05
3.5954e-05
3.5955e-05
3.59558e-05
3.59565e-05
3.59559e-05
3.59543e-05
3.59516e-05
3.59486e-05
3.59455e-05
3.59428e-05
3.59408e-05
3.59318e-05
3.59323e-05
3.59328e-05
3.59339e-05
3.59357e-05
3.59381e-05
3.59407e-05
3.59435e-05
3.5946e-05
3.59483e-05
3.59494e-05
3.59502e-05
3.59506e-05
3.59501e-05
3.59488e-05
3.59466e-05
3.5944e-05
3.59414e-05
3.5939e-05
3.59371e-05
3.59284e-05
3.59289e-05
3.59292e-05
3.59302e-05
3.59317e-05
3.59338e-05
3.5936e-05
3.59386e-05
3.59407e-05
3.59429e-05
3.59441e-05
3.59451e-05
3.59456e-05
3.59453e-05
3.59442e-05
3.59423e-05
3.59401e-05
3.59377e-05
3.59355e-05
3.59337e-05
3.59253e-05
3.59257e-05
3.5926e-05
3.59267e-05
3.59281e-05
3.59299e-05
3.5932e-05
3.59342e-05
3.59362e-05
3.59382e-05
3.59394e-05
3.59404e-05
3.59409e-05
3.59407e-05
3.59398e-05
3.59382e-05
3.59363e-05
3.59342e-05
3.59322e-05
3.59305e-05
3.59224e-05
3.59228e-05
3.5923e-05
3.59236e-05
3.59248e-05
3.59264e-05
3.59282e-05
3.59303e-05
3.59321e-05
3.5934e-05
3.59352e-05
3.59362e-05
3.59368e-05
3.59367e-05
3.5936e-05
3.59346e-05
3.59329e-05
3.5931e-05
3.59292e-05
3.59276e-05
3.59198e-05
3.59202e-05
3.59203e-05
3.59208e-05
3.59219e-05
3.59233e-05
3.5925e-05
3.59268e-05
3.59285e-05
3.59302e-05
3.59314e-05
3.59324e-05
3.5933e-05
3.5933e-05
3.59324e-05
3.59313e-05
3.59298e-05
3.59281e-05
3.59265e-05
3.5925e-05
3.59174e-05
3.59178e-05
3.59179e-05
3.59183e-05
3.59192e-05
3.59206e-05
3.5922e-05
3.59237e-05
3.59253e-05
3.59269e-05
3.59281e-05
3.5929e-05
3.59296e-05
3.59297e-05
3.59293e-05
3.59283e-05
3.5927e-05
3.59255e-05
3.5924e-05
3.59226e-05
3.59153e-05
3.59157e-05
3.59157e-05
3.59161e-05
3.59169e-05
3.59181e-05
3.59194e-05
3.5921e-05
3.59224e-05
3.59239e-05
3.59251e-05
3.59261e-05
3.59267e-05
3.59268e-05
3.59265e-05
3.59257e-05
3.59245e-05
3.59232e-05
3.59217e-05
3.59204e-05
3.59134e-05
3.59138e-05
3.59138e-05
3.59141e-05
3.59148e-05
3.59159e-05
3.59171e-05
3.59186e-05
3.59199e-05
3.59213e-05
3.59224e-05
3.59234e-05
3.5924e-05
3.59242e-05
3.5924e-05
3.59233e-05
3.59223e-05
3.59211e-05
3.59197e-05
3.59185e-05
3.59118e-05
3.59122e-05
3.59122e-05
3.59124e-05
3.59131e-05
3.59141e-05
3.59152e-05
3.59165e-05
3.59177e-05
3.59191e-05
3.59202e-05
3.59211e-05
3.59218e-05
3.5922e-05
3.59219e-05
3.59213e-05
3.59204e-05
3.59193e-05
3.5918e-05
3.59168e-05
3.59103e-05
3.59107e-05
3.59106e-05
3.59108e-05
3.59114e-05
3.59124e-05
3.59134e-05
3.59146e-05
3.59158e-05
3.59171e-05
3.59181e-05
3.59191e-05
3.59197e-05
3.592e-05
3.592e-05
3.59195e-05
3.59187e-05
3.59176e-05
3.59164e-05
3.59153e-05
3.59091e-05
3.59095e-05
3.59094e-05
3.59096e-05
3.59102e-05
3.5911e-05
3.5912e-05
3.59131e-05
3.59142e-05
3.59155e-05
3.59165e-05
3.59174e-05
3.59181e-05
3.59184e-05
3.59184e-05
3.5918e-05
3.59173e-05
3.59163e-05
3.59152e-05
3.59141e-05
3.5908e-05
3.59083e-05
3.59083e-05
3.59084e-05
3.59089e-05
3.59098e-05
3.59106e-05
3.59118e-05
3.59128e-05
3.5914e-05
3.5915e-05
3.59159e-05
3.59166e-05
3.5917e-05
3.5917e-05
3.59167e-05
3.5916e-05
3.59151e-05
3.5914e-05
3.5913e-05
3.59072e-05
3.59076e-05
3.59075e-05
3.59076e-05
3.59081e-05
3.59089e-05
3.59097e-05
3.59107e-05
3.59117e-05
3.59129e-05
3.59139e-05
3.59148e-05
3.59155e-05
3.59159e-05
3.59161e-05
3.59157e-05
3.59152e-05
3.59143e-05
3.59132e-05
3.59122e-05
3.59063e-05
3.59067e-05
3.59067e-05
3.59067e-05
3.59072e-05
3.5908e-05
3.59087e-05
3.59098e-05
3.59107e-05
3.59119e-05
3.59128e-05
3.59138e-05
3.59145e-05
3.59149e-05
3.59151e-05
3.59148e-05
3.59143e-05
3.59135e-05
3.59124e-05
3.59114e-05
3.5906e-05
3.59064e-05
3.59063e-05
3.59063e-05
3.59068e-05
3.59075e-05
3.59082e-05
3.59092e-05
3.59101e-05
3.59113e-05
3.59122e-05
3.59132e-05
3.59139e-05
3.59144e-05
3.59146e-05
3.59144e-05
3.59139e-05
3.59131e-05
3.5912e-05
3.5911e-05
3.59056e-05
3.5906e-05
3.59059e-05
3.5906e-05
3.59064e-05
3.59071e-05
3.59078e-05
3.59088e-05
3.59096e-05
3.59108e-05
3.59117e-05
3.59128e-05
3.59134e-05
3.59139e-05
3.59142e-05
3.5914e-05
3.59136e-05
3.59128e-05
3.59117e-05
3.59107e-05
3.59373e-05
3.59435e-05
3.5937e-05
3.59361e-05
3.59446e-05
3.59389e-05
3.59382e-05
3.59494e-05
3.59422e-05
3.59531e-05
3.59446e-05
3.5956e-05
3.59465e-05
3.59571e-05
3.59595e-05
3.59468e-05
3.59546e-05
3.59448e-05
3.59422e-05
3.59494e-05
3.56943e-05
3.19058e-05
2.96942e-05
2.93544e-05
3.05081e-05
3.2549e-05
3.49159e-05
3.72586e-05
3.9378e-05
4.11672e-05
4.25813e-05
4.36219e-05
4.43333e-05
4.48354e-05
4.53048e-05
4.58051e-05
4.61586e-05
4.58721e-05
4.4288e-05
4.10731e-05
2.85975e-05
3.13981e-05
3.48992e-05
3.81494e-05
4.06247e-05
4.22572e-05
4.32703e-05
4.38877e-05
4.42536e-05
4.46387e-05
4.53728e-05
4.6331e-05
4.67923e-05
4.60044e-05
4.37617e-05
4.05061e-05
3.65321e-05
3.24439e-05
2.92824e-05
2.80233e-05
3.62985e-05
3.80947e-05
3.96102e-05
4.06747e-05
4.13384e-05
4.16868e-05
4.18591e-05
4.19682e-05
4.24954e-05
4.5634e-05
5.26121e-05
6.14665e-05
6.81711e-05
6.90249e-05
6.36555e-05
5.48633e-05
4.55532e-05
3.86706e-05
3.54234e-05
3.51673e-05
3.88089e-05
3.90055e-05
3.934e-05
3.95502e-05
3.96473e-05
3.97199e-05
3.98342e-05
4.00781e-05
4.27481e-05
5.43349e-05
7.48156e-05
0.000100804
0.000121097
0.000123733
0.000110741
8.91157e-05
6.75424e-05
5.1862e-05
4.32207e-05
3.9722e-05
4.09247e-05
3.94587e-05
3.89472e-05
3.87844e-05
3.87739e-05
3.88315e-05
3.89586e-05
3.93538e-05
4.59169e-05
6.77379e-05
0.000107082
0.000160389
0.000203049
0.000216002
0.000194801
0.000150585
0.00010548
7.2855e-05
5.40123e-05
4.48433e-05
4.02695e-05
3.8792e-05
3.82979e-05
3.81499e-05
3.81461e-05
3.82083e-05
3.83422e-05
3.88697e-05
4.86427e-05
7.76977e-05
0.000132617
0.000204499
0.000253421
0.00025721
0.00021945
0.000161631
0.000109362
7.38161e-05
5.38362e-05
4.42691e-05
3.99751e-05
3.84159e-05
3.79261e-05
3.78067e-05
3.78246e-05
3.78931e-05
3.80174e-05
3.85827e-05
4.88848e-05
7.61648e-05
0.000129619
0.000213893
0.000288963
0.000303065
0.000253176
0.000179561
0.000117511
7.7031e-05
5.47205e-05
4.42242e-05
3.87746e-05
3.78658e-05
3.76153e-05
3.75691e-05
3.75964e-05
3.76573e-05
3.77574e-05
3.79845e-05
4.2285e-05
5.57729e-05
8.18057e-05
0.000139346
0.000209366
0.000241088
0.000210394
0.000151748
0.000100077
6.65883e-05
4.90996e-05
4.15497e-05
3.77752e-05
3.74862e-05
3.7427e-05
3.7437e-05
3.74738e-05
3.75306e-05
3.76104e-05
3.77439e-05
3.80894e-05
3.79526e-05
3.92939e-05
5.51738e-05
9.40617e-05
0.000128065
0.00012271
9.45293e-05
6.71701e-05
5.00204e-05
4.19124e-05
3.87991e-05
3.73888e-05
3.73377e-05
3.73374e-05
3.73551e-05
3.73842e-05
3.74297e-05
3.7492e-05
3.76064e-05
3.77867e-05
3.64623e-05
3.51194e-05
3.65744e-05
4.98965e-05
6.51989e-05
6.53625e-05
5.54432e-05
4.5959e-05
4.06192e-05
3.83845e-05
3.76177e-05
3.72787e-05
3.72798e-05
3.72909e-05
3.73091e-05
3.73332e-05
3.73697e-05
3.74166e-05
3.75098e-05
3.76441e-05
3.61206e-05
3.5357e-05
3.29189e-05
3.53361e-05
4.066e-05
4.19468e-05
4.02952e-05
3.86224e-05
3.77503e-05
3.74151e-05
3.7309e-05
3.72444e-05
3.72515e-05
3.72613e-05
3.72753e-05
3.72935e-05
3.73213e-05
3.73583e-05
3.74323e-05
3.75497e-05
3.56363e-05
3.47842e-05
3.17328e-05
3.15531e-05
3.41012e-05
3.60252e-05
3.68402e-05
3.71197e-05
3.72102e-05
3.7237e-05
3.72441e-05
3.72268e-05
3.72339e-05
3.72425e-05
3.7254e-05
3.72685e-05
3.72893e-05
3.73173e-05
3.73708e-05
3.74653e-05
3.57e-05
3.39222e-05
2.97963e-05
2.97329e-05
3.24741e-05
3.4903e-05
3.62757e-05
3.68927e-05
3.71264e-05
3.72017e-05
3.72229e-05
3.72151e-05
3.72212e-05
3.7228e-05
3.7237e-05
3.72482e-05
3.72637e-05
3.7285e-05
3.73232e-05
3.7438e-05
3.61084e-05
3.53927e-05
3.14268e-05
3.07671e-05
3.29031e-05
3.50265e-05
3.62977e-05
3.68886e-05
3.71163e-05
3.71905e-05
3.72116e-05
3.7207e-05
3.7212e-05
3.72175e-05
3.72248e-05
3.72337e-05
3.72454e-05
3.72616e-05
3.72876e-05
3.73879e-05
3.56055e-05
3.31889e-05
2.95304e-05
3.01613e-05
3.28638e-05
3.50895e-05
3.63418e-05
3.69056e-05
3.7118e-05
3.71858e-05
3.72046e-05
3.72003e-05
3.72041e-05
3.72085e-05
3.72143e-05
3.72213e-05
3.72301e-05
3.724e-05
3.72535e-05
3.72593e-05
3.3659e-05
2.74881e-05
2.55286e-05
2.83496e-05
3.22826e-05
3.50257e-05
3.63923e-05
3.69433e-05
3.71312e-05
3.71859e-05
3.71997e-05
3.71955e-05
3.71978e-05
3.72011e-05
3.72057e-05
3.72116e-05
3.72189e-05
3.72268e-05
3.72366e-05
3.72422e-05
3.69406e-05
3.67249e-05
3.67984e-05
3.697e-05
3.70757e-05
3.71261e-05
3.71697e-05
3.71935e-05
3.72006e-05
3.72005e-05
3.71991e-05
3.71899e-05
3.71917e-05
3.71943e-05
3.7198e-05
3.72029e-05
3.72088e-05
3.72151e-05
3.72226e-05
3.72302e-05
3.72267e-05
3.72206e-05
3.72202e-05
3.72254e-05
3.7226e-05
3.72214e-05
3.72141e-05
3.7207e-05
3.72009e-05
3.71965e-05
3.7194e-05
3.71849e-05
3.71862e-05
3.71882e-05
3.71913e-05
3.71953e-05
3.72003e-05
3.72055e-05
3.72111e-05
3.72154e-05
3.7219e-05
3.72175e-05
3.72171e-05
3.72193e-05
3.72181e-05
3.72141e-05
3.7208e-05
3.72017e-05
3.71961e-05
3.71919e-05
3.71892e-05
3.718e-05
3.7181e-05
3.71826e-05
3.71851e-05
3.71885e-05
3.71928e-05
3.71973e-05
3.72023e-05
3.72064e-05
3.72097e-05
3.72093e-05
3.72085e-05
3.7209e-05
3.72078e-05
3.72049e-05
3.72001e-05
3.7195e-05
3.71904e-05
3.71868e-05
3.71844e-05
3.71755e-05
3.71762e-05
3.71774e-05
3.71795e-05
3.71823e-05
3.7186e-05
3.71898e-05
3.71939e-05
3.71971e-05
3.72e-05
3.72004e-05
3.72008e-05
3.72017e-05
3.72007e-05
3.71982e-05
3.71941e-05
3.71898e-05
3.71856e-05
3.71823e-05
3.718e-05
3.71711e-05
3.71717e-05
3.71726e-05
3.71743e-05
3.71768e-05
3.718e-05
3.71833e-05
3.7187e-05
3.71901e-05
3.71929e-05
3.71935e-05
3.71938e-05
3.71941e-05
3.71932e-05
3.71911e-05
3.71879e-05
3.71842e-05
3.71807e-05
3.71778e-05
3.71756e-05
3.71671e-05
3.71676e-05
3.71682e-05
3.71696e-05
3.71717e-05
3.71744e-05
3.71773e-05
3.71806e-05
3.71832e-05
3.71857e-05
3.71866e-05
3.71874e-05
3.7188e-05
3.71873e-05
3.71856e-05
3.71828e-05
3.71796e-05
3.71765e-05
3.71738e-05
3.71717e-05
3.71634e-05
3.71637e-05
3.71642e-05
3.71653e-05
3.71671e-05
3.71695e-05
3.71721e-05
3.7175e-05
3.71774e-05
3.71798e-05
3.71809e-05
3.71816e-05
3.71819e-05
3.71814e-05
3.71799e-05
3.71776e-05
3.7175e-05
3.71722e-05
3.71698e-05
3.71679e-05
3.71599e-05
3.71602e-05
3.71605e-05
3.71614e-05
3.71629e-05
3.7165e-05
3.71673e-05
3.71699e-05
3.7172e-05
3.71742e-05
3.71754e-05
3.71763e-05
3.71768e-05
3.71764e-05
3.71752e-05
3.71732e-05
3.71709e-05
3.71685e-05
3.71662e-05
3.71644e-05
3.71567e-05
3.71569e-05
3.71571e-05
3.71579e-05
3.71592e-05
3.7161e-05
3.71631e-05
3.71654e-05
3.71674e-05
3.71694e-05
3.71706e-05
3.71715e-05
3.71719e-05
3.71717e-05
3.71707e-05
3.7169e-05
3.7167e-05
3.71649e-05
3.71628e-05
3.71612e-05
3.71537e-05
3.71539e-05
3.71541e-05
3.71546e-05
3.71558e-05
3.71574e-05
3.71592e-05
3.71613e-05
3.71631e-05
3.7165e-05
3.71662e-05
3.71672e-05
3.71677e-05
3.71676e-05
3.71668e-05
3.71654e-05
3.71636e-05
3.71616e-05
3.71598e-05
3.71582e-05
3.7151e-05
3.71512e-05
3.71513e-05
3.71518e-05
3.71528e-05
3.71542e-05
3.71558e-05
3.71577e-05
3.71594e-05
3.71611e-05
3.71623e-05
3.71633e-05
3.71638e-05
3.71638e-05
3.71631e-05
3.71619e-05
3.71604e-05
3.71587e-05
3.7157e-05
3.71555e-05
3.71486e-05
3.71488e-05
3.71488e-05
3.71492e-05
3.715e-05
3.71513e-05
3.71528e-05
3.71545e-05
3.71561e-05
3.71577e-05
3.71588e-05
3.71598e-05
3.71604e-05
3.71604e-05
3.71599e-05
3.71589e-05
3.71575e-05
3.7156e-05
3.71544e-05
3.7153e-05
3.71464e-05
3.71466e-05
3.71466e-05
3.71469e-05
3.71477e-05
3.71488e-05
3.71501e-05
3.71517e-05
3.71531e-05
3.71547e-05
3.71558e-05
3.71568e-05
3.71573e-05
3.71574e-05
3.71571e-05
3.71562e-05
3.7155e-05
3.71536e-05
3.71521e-05
3.71508e-05
3.71445e-05
3.71447e-05
3.71446e-05
3.71448e-05
3.71455e-05
3.71466e-05
3.71477e-05
3.71492e-05
3.71505e-05
3.7152e-05
3.71531e-05
3.7154e-05
3.71546e-05
3.71548e-05
3.71545e-05
3.71538e-05
3.71527e-05
3.71514e-05
3.71501e-05
3.71488e-05
3.71428e-05
3.7143e-05
3.71429e-05
3.71431e-05
3.71437e-05
3.71446e-05
3.71457e-05
3.71471e-05
3.71483e-05
3.71497e-05
3.71507e-05
3.71517e-05
3.71523e-05
3.71525e-05
3.71523e-05
3.71517e-05
3.71507e-05
3.71496e-05
3.71483e-05
3.71471e-05
3.71413e-05
3.71415e-05
3.71413e-05
3.71415e-05
3.7142e-05
3.71429e-05
3.71439e-05
3.71451e-05
3.71463e-05
3.71476e-05
3.71486e-05
3.71496e-05
3.71502e-05
3.71505e-05
3.71504e-05
3.71498e-05
3.7149e-05
3.71479e-05
3.71467e-05
3.71456e-05
3.714e-05
3.71402e-05
3.71401e-05
3.71402e-05
3.71407e-05
3.71415e-05
3.71424e-05
3.71436e-05
3.71447e-05
3.71459e-05
3.71469e-05
3.71479e-05
3.71485e-05
3.71488e-05
3.71488e-05
3.71483e-05
3.71476e-05
3.71466e-05
3.71454e-05
3.71443e-05
3.71389e-05
3.71391e-05
3.71389e-05
3.7139e-05
3.71395e-05
3.71402e-05
3.7141e-05
3.71422e-05
3.71432e-05
3.71444e-05
3.71454e-05
3.71464e-05
3.7147e-05
3.71473e-05
3.71473e-05
3.71469e-05
3.71462e-05
3.71453e-05
3.71442e-05
3.71432e-05
3.71381e-05
3.71383e-05
3.71381e-05
3.71381e-05
3.71386e-05
3.71393e-05
3.714e-05
3.71411e-05
3.71421e-05
3.71433e-05
3.71442e-05
3.71452e-05
3.71458e-05
3.71463e-05
3.71463e-05
3.7146e-05
3.71453e-05
3.71445e-05
3.71434e-05
3.71424e-05
3.71372e-05
3.71374e-05
3.71373e-05
3.71373e-05
3.71377e-05
3.71384e-05
3.71391e-05
3.71401e-05
3.71411e-05
3.71423e-05
3.71432e-05
3.71442e-05
3.71448e-05
3.71452e-05
3.71453e-05
3.7145e-05
3.71444e-05
3.71436e-05
3.71425e-05
3.71415e-05
3.71369e-05
3.71371e-05
3.71369e-05
3.71368e-05
3.71373e-05
3.71379e-05
3.71385e-05
3.71396e-05
3.71405e-05
3.71416e-05
3.71425e-05
3.71436e-05
3.71442e-05
3.71447e-05
3.71448e-05
3.71445e-05
3.7144e-05
3.71432e-05
3.71421e-05
3.71412e-05
3.71365e-05
3.71367e-05
3.71365e-05
3.71365e-05
3.71369e-05
3.71375e-05
3.71381e-05
3.71391e-05
3.714e-05
3.71412e-05
3.71421e-05
3.71431e-05
3.71437e-05
3.71442e-05
3.71444e-05
3.71441e-05
3.71437e-05
3.71428e-05
3.71418e-05
3.71408e-05
3.71681e-05
3.71736e-05
3.71674e-05
3.71667e-05
3.71746e-05
3.71691e-05
3.71686e-05
3.71793e-05
3.71724e-05
3.71829e-05
3.71747e-05
3.71857e-05
3.71766e-05
3.71867e-05
3.71888e-05
3.71767e-05
3.7184e-05
3.71747e-05
3.71723e-05
3.7179e-05
3.71179e-05
3.33218e-05
3.12882e-05
3.11583e-05
3.24565e-05
3.45536e-05
3.69221e-05
3.92418e-05
4.13268e-05
4.30762e-05
4.44537e-05
4.54744e-05
4.61999e-05
4.67694e-05
4.73661e-05
4.80226e-05
4.84888e-05
4.81692e-05
4.63509e-05
4.27892e-05
3.02262e-05
3.32671e-05
3.68125e-05
3.99698e-05
4.23087e-05
4.38344e-05
4.47835e-05
4.53672e-05
4.5711e-05
4.60868e-05
4.68263e-05
4.77726e-05
4.81653e-05
4.72411e-05
4.48148e-05
4.13594e-05
3.72227e-05
3.31171e-05
3.01529e-05
2.92589e-05
3.78554e-05
3.96261e-05
4.10878e-05
4.20998e-05
4.27208e-05
4.3042e-05
4.32047e-05
4.33167e-05
4.38599e-05
4.71129e-05
5.41756e-05
6.28736e-05