/*--------------------------------*- C++ -*----------------------------------*\
| =========                 |                                                 |
| \\      /  F ield         | OpenFOAM: The Open Source CFD Toolbox           |
|  \\    /   O peration     | Version:  2.4.0                                 |
|   \\  /    A nd           | Web:      www.OpenFOAM.org                      |
|    \\/     M anipulation  |                                                 |
\*---------------------------------------------------------------------------*/
FoamFile
{
    version     2.0;
    format      ascii;
    class       volScalarField;
    location    "90";
    object      k;
}
// * * * * * * * * * * * * * * * * * * * * * * * * * * * * * * * * * * * * * //

dimensions      [0 2 -2 0 0 0 0];

internalField   nonuniform List<scalar> 
283312
(
4.92314e-05
4.71438e-05
4.44276e-05
4.20369e-05
4.05034e-05
3.99946e-05
4.0433e-05
4.15733e-05
4.30809e-05
4.45703e-05
4.56719e-05
4.61545e-05
4.60169e-05
4.54986e-05
4.49921e-05
4.49236e-05
4.56171e-05
4.70601e-05
4.87279e-05
4.96913e-05
3.15913e-05
3.36244e-05
3.65277e-05
3.97092e-05
4.2628e-05
4.49773e-05
4.6695e-05
4.78489e-05
4.84069e-05
4.80584e-05
4.66067e-05
4.44183e-05
4.20964e-05
3.99507e-05
3.79754e-05
3.61686e-05
3.44061e-05
3.2669e-05
3.12735e-05
3.07694e-05
3.82249e-05
4.03799e-05
4.25284e-05
4.42923e-05
4.55439e-05
4.62974e-05
4.66866e-05
4.68542e-05
4.63486e-05
4.40252e-05
4.08503e-05
3.93056e-05
4.00748e-05
4.16677e-05
4.24291e-05
4.18658e-05
3.99162e-05
3.76853e-05
3.64101e-05
3.6647e-05
4.20225e-05
4.30051e-05
4.38887e-05
4.44594e-05
4.47453e-05
4.48794e-05
4.49872e-05
4.50679e-05
4.35432e-05
3.87934e-05
3.6981e-05
4.24462e-05
5.17145e-05
5.835e-05
6.00442e-05
5.70094e-05
5.13306e-05
4.59053e-05
4.25522e-05
4.15002e-05
4.47484e-05
4.43343e-05
4.41609e-05
4.40825e-05
4.40658e-05
4.4095e-05
4.41787e-05
4.41986e-05
4.09988e-05
3.54239e-05
4.06425e-05
5.85947e-05
7.97731e-05
9.42349e-05
9.66353e-05
8.61938e-05
7.0458e-05
5.72514e-05
4.94379e-05
4.59019e-05
4.49567e-05
4.41182e-05
4.37122e-05
4.35373e-05
4.34921e-05
4.35194e-05
4.36106e-05
4.35923e-05
3.95544e-05
3.55144e-05
4.79495e-05
7.5403e-05
0.000102361
0.000115666
0.000110928
9.31209e-05
7.31624e-05
5.8638e-05
5.05278e-05
4.66259e-05
4.47337e-05
4.37742e-05
4.33464e-05
4.31958e-05
4.31798e-05
4.32216e-05
4.33117e-05
4.3269e-05
3.93744e-05
3.52423e-05
4.78226e-05
7.80212e-05
0.000111164
0.000126872
0.000118447
9.60434e-05
7.39816e-05
5.90546e-05
5.08055e-05
4.66448e-05
4.40476e-05
4.33291e-05
4.30499e-05
4.29664e-05
4.29679e-05
4.3009e-05
4.30867e-05
4.31755e-05
4.18112e-05
3.59296e-05
3.8498e-05
5.58856e-05
8.3786e-05
0.000103759
0.000102001
8.55573e-05
6.8119e-05
5.6031e-05
4.91532e-05
4.56328e-05
4.32338e-05
4.2936e-05
4.28406e-05
4.28277e-05
4.28493e-05
4.28916e-05
4.29553e-05
4.30627e-05
4.31573e-05
3.81351e-05
3.22e-05
2.96079e-05
4.13165e-05
5.97994e-05
6.63371e-05
6.18665e-05
5.46655e-05
4.90673e-05
4.5695e-05
4.39711e-05
4.28291e-05
4.27595e-05
4.27435e-05
4.27502e-05
4.27696e-05
4.28035e-05
4.28527e-05
4.29452e-05
4.30643e-05
3.76259e-05
3.08341e-05
2.50424e-05
2.72846e-05
3.69178e-05
4.40598e-05
4.61584e-05
4.55538e-05
4.43707e-05
4.34886e-05
4.30205e-05
4.26952e-05
4.26915e-05
4.2696e-05
4.27073e-05
4.27242e-05
4.27513e-05
4.27882e-05
4.28633e-05
4.29491e-05
3.68791e-05
2.9864e-05
2.42177e-05
2.42199e-05
3.0232e-05
3.67242e-05
4.06202e-05
4.22129e-05
4.26593e-05
4.27223e-05
4.27072e-05
4.26577e-05
4.26643e-05
4.26701e-05
4.26789e-05
4.26911e-05
4.27111e-05
4.27395e-05
4.27987e-05
4.2873e-05
3.6161e-05
2.92297e-05
2.42158e-05
2.45289e-05
2.98229e-05
3.5714e-05
3.96246e-05
4.15479e-05
4.23107e-05
4.25648e-05
4.26374e-05
4.2641e-05
4.26485e-05
4.26539e-05
4.26612e-05
4.26707e-05
4.26852e-05
4.27062e-05
4.27485e-05
4.28055e-05
3.58838e-05
2.83571e-05
2.29498e-05
2.40649e-05
2.98775e-05
3.57807e-05
3.96123e-05
4.15083e-05
4.22761e-05
4.25397e-05
4.26183e-05
4.26316e-05
4.26383e-05
4.26426e-05
4.26481e-05
4.26551e-05
4.26654e-05
4.26808e-05
4.27103e-05
4.27849e-05
3.60312e-05
2.92866e-05
2.43098e-05
2.52712e-05
3.06505e-05
3.61604e-05
3.97642e-05
4.15575e-05
4.22854e-05
4.25354e-05
4.261e-05
4.26257e-05
4.26313e-05
4.26348e-05
4.26391e-05
4.26445e-05
4.26519e-05
4.26632e-05
4.26828e-05
4.27478e-05
3.56304e-05
2.78178e-05
2.32649e-05
2.53986e-05
3.12168e-05
3.66257e-05
4.00179e-05
4.16643e-05
4.23202e-05
4.25419e-05
4.2607e-05
4.26226e-05
4.26261e-05
4.26286e-05
4.26319e-05
4.26359e-05
4.26411e-05
4.26473e-05
4.26563e-05
4.26611e-05
3.58314e-05
2.6241e-05
2.2781e-05
2.631e-05
3.25746e-05
3.77255e-05
4.0643e-05
4.19391e-05
4.24176e-05
4.25689e-05
4.26108e-05
4.26215e-05
4.26223e-05
4.26238e-05
4.26263e-05
4.26295e-05
4.26337e-05
4.26385e-05
4.26447e-05
4.26472e-05
4.19194e-05
4.14581e-05
4.16493e-05
4.2038e-05
4.22883e-05
4.24035e-05
4.25095e-05
4.25786e-05
4.26089e-05
4.26183e-05
4.26201e-05
4.26181e-05
4.26184e-05
4.26195e-05
4.26214e-05
4.26239e-05
4.26271e-05
4.26307e-05
4.26352e-05
4.26401e-05
4.26241e-05
4.26136e-05
4.26179e-05
4.26278e-05
4.26321e-05
4.26306e-05
4.26276e-05
4.26246e-05
4.26216e-05
4.26192e-05
4.26176e-05
4.26149e-05
4.2615e-05
4.26157e-05
4.26172e-05
4.26192e-05
4.26218e-05
4.26247e-05
4.26279e-05
4.26302e-05
4.2632e-05
4.26308e-05
4.26304e-05
4.26318e-05
4.26313e-05
4.26293e-05
4.26259e-05
4.26223e-05
4.26189e-05
4.26163e-05
4.26146e-05
4.26119e-05
4.26118e-05
4.26123e-05
4.26134e-05
4.2615e-05
4.26172e-05
4.26196e-05
4.26224e-05
4.26247e-05
4.26264e-05
4.26259e-05
4.26251e-05
4.26254e-05
4.2625e-05
4.26236e-05
4.2621e-05
4.26181e-05
4.26153e-05
4.26131e-05
4.26116e-05
4.26091e-05
4.26089e-05
4.26092e-05
4.261e-05
4.26112e-05
4.2613e-05
4.2615e-05
4.26172e-05
4.2619e-05
4.26205e-05
4.26206e-05
4.26206e-05
4.26212e-05
4.26207e-05
4.26195e-05
4.26173e-05
4.26148e-05
4.26124e-05
4.26103e-05
4.26089e-05
4.26065e-05
4.26062e-05
4.26063e-05
4.26069e-05
4.26079e-05
4.26094e-05
4.26111e-05
4.26131e-05
4.26147e-05
4.26162e-05
4.26165e-05
4.26165e-05
4.26167e-05
4.26163e-05
4.26153e-05
4.26135e-05
4.26114e-05
4.26094e-05
4.26076e-05
4.26063e-05
4.26041e-05
4.26037e-05
4.26037e-05
4.26041e-05
4.26048e-05
4.2606e-05
4.26074e-05
4.26091e-05
4.26106e-05
4.26119e-05
4.26124e-05
4.26128e-05
4.26131e-05
4.26128e-05
4.26119e-05
4.26104e-05
4.26086e-05
4.26068e-05
4.26052e-05
4.26039e-05
4.26018e-05
4.26014e-05
4.26013e-05
4.26015e-05
4.26021e-05
4.26031e-05
4.26043e-05
4.26058e-05
4.26071e-05
4.26084e-05
4.2609e-05
4.26093e-05
4.26096e-05
4.26093e-05
4.26086e-05
4.26073e-05
4.26058e-05
4.26042e-05
4.26028e-05
4.26016e-05
4.25997e-05
4.25993e-05
4.25991e-05
4.25992e-05
4.25996e-05
4.26004e-05
4.26014e-05
4.26027e-05
4.26039e-05
4.26051e-05
4.26057e-05
4.26062e-05
4.26065e-05
4.26064e-05
4.26058e-05
4.26047e-05
4.26034e-05
4.26019e-05
4.26006e-05
4.25995e-05
4.25978e-05
4.25973e-05
4.2597e-05
4.25971e-05
4.25974e-05
4.2598e-05
4.25989e-05
4.26001e-05
4.26011e-05
4.26022e-05
4.26029e-05
4.26034e-05
4.26037e-05
4.26035e-05
4.26031e-05
4.26021e-05
4.2601e-05
4.25998e-05
4.25986e-05
4.25975e-05
4.25961e-05
4.25956e-05
4.25952e-05
4.25952e-05
4.25953e-05
4.25959e-05
4.25966e-05
4.25976e-05
4.25986e-05
4.25996e-05
4.26003e-05
4.26008e-05
4.26011e-05
4.26011e-05
4.26007e-05
4.25999e-05
4.25989e-05
4.25978e-05
4.25967e-05
4.25957e-05
4.25944e-05
4.25939e-05
4.25936e-05
4.25934e-05
4.25935e-05
4.25939e-05
4.25946e-05
4.25955e-05
4.25964e-05
4.25973e-05
4.2598e-05
4.25985e-05
4.25988e-05
4.25988e-05
4.25985e-05
4.25979e-05
4.2597e-05
4.2596e-05
4.2595e-05
4.25941e-05
4.2593e-05
4.25925e-05
4.25921e-05
4.25919e-05
4.25919e-05
4.25922e-05
4.25928e-05
4.25935e-05
4.25944e-05
4.25952e-05
4.25959e-05
4.25964e-05
4.25968e-05
4.25968e-05
4.25966e-05
4.2596e-05
4.25952e-05
4.25944e-05
4.25934e-05
4.25926e-05
4.25917e-05
4.25912e-05
4.25908e-05
4.25905e-05
4.25905e-05
4.25907e-05
4.25912e-05
4.25919e-05
4.25926e-05
4.25934e-05
4.25941e-05
4.25946e-05
4.25949e-05
4.2595e-05
4.25948e-05
4.25943e-05
4.25937e-05
4.25929e-05
4.2592e-05
4.25913e-05
4.25905e-05
4.259e-05
4.25896e-05
4.25893e-05
4.25892e-05
4.25894e-05
4.25897e-05
4.25904e-05
4.2591e-05
4.25918e-05
4.25924e-05
4.2593e-05
4.25933e-05
4.25934e-05
4.25933e-05
4.25929e-05
4.25923e-05
4.25916e-05
4.25908e-05
4.25901e-05
4.25895e-05
4.2589e-05
4.25885e-05
4.25882e-05
4.25881e-05
4.25882e-05
4.25885e-05
4.25891e-05
4.25897e-05
4.25904e-05
4.2591e-05
4.25915e-05
4.25919e-05
4.2592e-05
4.25919e-05
4.25916e-05
4.2591e-05
4.25904e-05
4.25897e-05
4.2589e-05
4.25886e-05
4.25881e-05
4.25876e-05
4.25873e-05
4.25871e-05
4.25872e-05
4.25874e-05
4.25879e-05
4.25885e-05
4.25892e-05
4.25898e-05
4.25903e-05
4.25906e-05
4.25908e-05
4.25907e-05
4.25904e-05
4.259e-05
4.25894e-05
4.25887e-05
4.25881e-05
4.25878e-05
4.25873e-05
4.25868e-05
4.25865e-05
4.25863e-05
4.25863e-05
4.25865e-05
4.2587e-05
4.25875e-05
4.25882e-05
4.25887e-05
4.25892e-05
4.25896e-05
4.25898e-05
4.25897e-05
4.25895e-05
4.2589e-05
4.25885e-05
4.25879e-05
4.25873e-05
4.25871e-05
4.25867e-05
4.25862e-05
4.25858e-05
4.25856e-05
4.25855e-05
4.25857e-05
4.25862e-05
4.25867e-05
4.25873e-05
4.25878e-05
4.25883e-05
4.25887e-05
4.25889e-05
4.25888e-05
4.25886e-05
4.25882e-05
4.25877e-05
4.25871e-05
4.25866e-05
4.25866e-05
4.25861e-05
4.25856e-05
4.25852e-05
4.2585e-05
4.25849e-05
4.25851e-05
4.25855e-05
4.2586e-05
4.25866e-05
4.25871e-05
4.25876e-05
4.25879e-05
4.25881e-05
4.25882e-05
4.25879e-05
4.25876e-05
4.25871e-05
4.25865e-05
4.2586e-05
4.25861e-05
4.25857e-05
4.25852e-05
4.25848e-05
4.25845e-05
4.25845e-05
4.25845e-05
4.25849e-05
4.25854e-05
4.2586e-05
4.25865e-05
4.2587e-05
4.25873e-05
4.25875e-05
4.25876e-05
4.25874e-05
4.2587e-05
4.25866e-05
4.2586e-05
4.25856e-05
4.25858e-05
4.25854e-05
4.25849e-05
4.25844e-05
4.25842e-05
4.25841e-05
4.25842e-05
4.25846e-05
4.2585e-05
4.25856e-05
4.25861e-05
4.25866e-05
4.25869e-05
4.25871e-05
4.25872e-05
4.2587e-05
4.25867e-05
4.25862e-05
4.25857e-05
4.25853e-05
4.25857e-05
4.25853e-05
4.25848e-05
4.25843e-05
4.25841e-05
4.2584e-05
4.2584e-05
4.25844e-05
4.25849e-05
4.25854e-05
4.25859e-05
4.25864e-05
4.25867e-05
4.25869e-05
4.2587e-05
4.25868e-05
4.25865e-05
4.2586e-05
4.25855e-05
4.25851e-05
4.26156e-05
4.26206e-05
4.26141e-05
4.26127e-05
4.26199e-05
4.26139e-05
4.26127e-05
4.26224e-05
4.26155e-05
4.2625e-05
4.26168e-05
4.26268e-05
4.26179e-05
4.26273e-05
4.26294e-05
4.26178e-05
4.26249e-05
4.26162e-05
4.26141e-05
4.26214e-05
4.95401e-05
4.74268e-05
4.4806e-05
4.25811e-05
4.1212e-05
4.08427e-05
4.13826e-05
4.25867e-05
4.41126e-05
4.55598e-05
4.65465e-05
4.68491e-05
4.65016e-05
4.57966e-05
4.51845e-05
4.51126e-05
4.58988e-05
4.74679e-05
4.9196e-05
5.00978e-05
3.20049e-05
3.4396e-05
3.75064e-05
4.07456e-05
4.36241e-05
4.58942e-05
4.75374e-05
4.86313e-05
4.91228e-05
4.86457e-05
4.69691e-05
4.4492e-05
4.18844e-05
3.95079e-05
3.73742e-05
3.54778e-05
3.36954e-05
3.20457e-05
3.08862e-05
3.07543e-05
3.87862e-05
4.11422e-05
4.33553e-05
4.51096e-05
4.63215e-05
4.70302e-05
4.73925e-05
4.75479e-05
4.69889e-05
4.44055e-05
4.07453e-05
3.86145e-05
3.88295e-05
4.00245e-05
4.06284e-05
4.01027e-05
3.84415e-05
3.67189e-05
3.60459e-05
3.68266e-05
4.25005e-05
4.36886e-05
4.46279e-05
4.51949e-05
4.54675e-05
4.55975e-05
4.57073e-05
4.57911e-05
4.41647e-05
3.87967e-05
3.59279e-05
4.00658e-05
4.79598e-05
5.36391e-05
5.513e-05
5.25857e-05
4.79591e-05
4.38404e-05
4.16923e-05
4.15008e-05
4.49598e-05
4.48485e-05
4.48002e-05
4.47716e-05
4.47768e-05
4.48162e-05
4.4907e-05
4.49292e-05
4.1513e-05
3.48049e-05
3.82406e-05
5.38046e-05
7.24811e-05
8.51703e-05
8.68507e-05
7.73646e-05
6.3927e-05
5.33626e-05
4.76643e-05
4.54448e-05
4.52082e-05
4.46538e-05
4.43675e-05
4.42403e-05
4.42156e-05
4.42516e-05
4.43483e-05
4.43283e-05
3.99416e-05
3.4364e-05
4.44493e-05
6.8528e-05
9.19565e-05
0.000103105
9.83131e-05
8.2635e-05
6.60172e-05
5.46885e-05
4.88477e-05
4.62474e-05
4.50177e-05
4.43334e-05
4.40193e-05
4.3912e-05
4.39118e-05
4.39594e-05
4.4053e-05
4.40069e-05
3.974e-05
3.41031e-05
4.45214e-05
7.10585e-05
9.93904e-05
0.00011178
0.00010346
8.41761e-05
6.63155e-05
5.50078e-05
4.91567e-05
4.63113e-05
4.44942e-05
4.39638e-05
4.37551e-05
4.36959e-05
4.37058e-05
4.37502e-05
4.38301e-05
4.39198e-05
4.24277e-05
3.56124e-05
3.699e-05
5.1908e-05
7.5548e-05
9.17291e-05
8.93097e-05
7.54971e-05
6.1869e-05
5.29792e-05
4.81093e-05
4.5624e-05
4.38614e-05
4.36405e-05
4.35711e-05
4.35665e-05
4.35908e-05
4.36344e-05
4.36991e-05
4.38085e-05
4.39016e-05
3.85401e-05
3.22758e-05
2.87118e-05
3.83508e-05
5.38776e-05
5.94907e-05
5.6546e-05
5.16775e-05
4.79206e-05
4.56131e-05
4.43943e-05
4.35426e-05
4.34925e-05
4.34828e-05
4.34917e-05
4.35122e-05
4.3547e-05
4.35969e-05
4.36911e-05
4.38108e-05
3.80809e-05
3.11462e-05
2.49921e-05
2.63943e-05
3.49135e-05
4.18476e-05
4.47043e-05
4.50464e-05
4.45272e-05
4.39942e-05
4.36779e-05
4.34328e-05
4.34322e-05
4.34379e-05
4.34499e-05
4.34672e-05
4.34949e-05
4.35322e-05
4.36088e-05
4.36942e-05
3.73235e-05
3.01875e-05
2.44048e-05
2.42861e-05
3.01909e-05
3.67747e-05
4.09105e-05
4.27224e-05
4.33011e-05
4.34266e-05
4.34363e-05
4.33995e-05
4.34063e-05
4.34124e-05
4.34216e-05
4.34343e-05
4.34548e-05
4.34836e-05
4.35438e-05
4.3618e-05
3.65868e-05
2.96291e-05
2.45954e-05
2.50105e-05
3.04657e-05
3.64544e-05
4.03928e-05
4.2311e-05
4.30633e-05
4.33105e-05
4.33803e-05
4.33838e-05
4.33909e-05
4.33965e-05
4.34041e-05
4.34139e-05
4.34288e-05
4.34501e-05
4.34931e-05
4.355e-05
3.631e-05
2.87412e-05
2.33444e-05
2.466e-05
3.06839e-05
3.66605e-05
4.04651e-05
4.23115e-05
4.30446e-05
4.32911e-05
4.33632e-05
4.33744e-05
4.33808e-05
4.33853e-05
4.3391e-05
4.33982e-05
4.34088e-05
4.34246e-05
4.34545e-05
4.35302e-05
3.64772e-05
2.97571e-05
2.47827e-05
2.59142e-05
3.14841e-05
3.70543e-05
4.06232e-05
4.23629e-05
4.30544e-05
4.3287e-05
4.3355e-05
4.33686e-05
4.33738e-05
4.33775e-05
4.3382e-05
4.33876e-05
4.33952e-05
4.34068e-05
4.34267e-05
4.3493e-05
3.60497e-05
2.81962e-05
2.37029e-05
2.60574e-05
3.20627e-05
3.75189e-05
4.08714e-05
4.24652e-05
4.30869e-05
4.32926e-05
4.33519e-05
4.33653e-05
4.33686e-05
4.33713e-05
4.33747e-05
4.33789e-05
4.33843e-05
4.33906e-05
4.33999e-05
4.34043e-05
3.62171e-05
2.63894e-05
2.31136e-05
2.69803e-05
3.34515e-05
3.8623e-05
4.14847e-05
4.27285e-05
4.31779e-05
4.33171e-05
4.33548e-05
4.33638e-05
4.33647e-05
4.33664e-05
4.3369e-05
4.33724e-05
4.33767e-05
4.33817e-05
4.3388e-05
4.33904e-05
4.26253e-05
4.21697e-05
4.23895e-05
4.27904e-05
4.30379e-05
4.31539e-05
4.32589e-05
4.33248e-05
4.33529e-05
4.33611e-05
4.33626e-05
4.33603e-05
4.33608e-05
4.3362e-05
4.3364e-05
4.33667e-05
4.33701e-05
4.33738e-05
4.33784e-05
4.33834e-05
4.33664e-05
4.33561e-05
4.33609e-05
4.33711e-05
4.3375e-05
4.33733e-05
4.33702e-05
4.3367e-05
4.3364e-05
4.33615e-05
4.336e-05
4.33572e-05
4.33573e-05
4.33582e-05
4.33598e-05
4.33619e-05
4.33647e-05
4.33676e-05
4.33709e-05
4.33733e-05
4.3375e-05
4.33737e-05
4.33733e-05
4.33747e-05
4.33741e-05
4.33719e-05
4.33684e-05
4.33646e-05
4.33612e-05
4.33586e-05
4.3357e-05
4.33541e-05
4.33541e-05
4.33547e-05
4.33559e-05
4.33576e-05
4.33599e-05
4.33624e-05
4.33653e-05
4.33677e-05
4.33693e-05
4.33687e-05
4.33679e-05
4.33682e-05
4.33677e-05
4.33662e-05
4.33634e-05
4.33604e-05
4.33576e-05
4.33554e-05
4.33539e-05
4.33513e-05
4.33512e-05
4.33515e-05
4.33525e-05
4.33538e-05
4.33557e-05
4.33577e-05
4.336e-05
4.33618e-05
4.33633e-05
4.33633e-05
4.33634e-05
4.33639e-05
4.33634e-05
4.3362e-05
4.33597e-05
4.33572e-05
4.33547e-05
4.33527e-05
4.33512e-05
4.33487e-05
4.33484e-05
4.33486e-05
4.33493e-05
4.33504e-05
4.3352e-05
4.33537e-05
4.33558e-05
4.33575e-05
4.3359e-05
4.33592e-05
4.33591e-05
4.33593e-05
4.33588e-05
4.33578e-05
4.33559e-05
4.33538e-05
4.33517e-05
4.33499e-05
4.33486e-05
4.33463e-05
4.33459e-05
4.33459e-05
4.33464e-05
4.33473e-05
4.33486e-05
4.33501e-05
4.33518e-05
4.33532e-05
4.33546e-05
4.3355e-05
4.33554e-05
4.33557e-05
4.33554e-05
4.33544e-05
4.33528e-05
4.3351e-05
4.33491e-05
4.33475e-05
4.33462e-05
4.3344e-05
4.33436e-05
4.33435e-05
4.33438e-05
4.33445e-05
4.33456e-05
4.33468e-05
4.33484e-05
4.33497e-05
4.3351e-05
4.33516e-05
4.33519e-05
4.33521e-05
4.33518e-05
4.3351e-05
4.33497e-05
4.33481e-05
4.33465e-05
4.33451e-05
4.33439e-05
4.33419e-05
4.33414e-05
4.33413e-05
4.33414e-05
4.3342e-05
4.33428e-05
4.33439e-05
4.33453e-05
4.33464e-05
4.33476e-05
4.33483e-05
4.33487e-05
4.3349e-05
4.33488e-05
4.33482e-05
4.3347e-05
4.33457e-05
4.33442e-05
4.33429e-05
4.33418e-05
4.33399e-05
4.33395e-05
4.33392e-05
4.33393e-05
4.33397e-05
4.33404e-05
4.33413e-05
4.33425e-05
4.33436e-05
4.33447e-05
4.33454e-05
4.33458e-05
4.33461e-05
4.3346e-05
4.33454e-05
4.33445e-05
4.33433e-05
4.3342e-05
4.33408e-05
4.33398e-05
4.33381e-05
4.33377e-05
4.33374e-05
4.33374e-05
4.33376e-05
4.33382e-05
4.3339e-05
4.334e-05
4.3341e-05
4.3342e-05
4.33427e-05
4.33432e-05
4.33435e-05
4.33435e-05
4.33431e-05
4.33422e-05
4.33412e-05
4.33401e-05
4.3339e-05
4.3338e-05
4.33365e-05
4.3336e-05
4.33357e-05
4.33356e-05
4.33358e-05
4.33362e-05
4.33369e-05
4.33378e-05
4.33388e-05
4.33397e-05
4.33404e-05
4.33409e-05
4.33412e-05
4.33412e-05
4.33408e-05
4.33401e-05
4.33392e-05
4.33382e-05
4.33372e-05
4.33363e-05
4.3335e-05
4.33345e-05
4.33342e-05
4.3334e-05
4.33341e-05
4.33345e-05
4.33351e-05
4.33359e-05
4.33367e-05
4.33376e-05
4.33383e-05
4.33388e-05
4.33391e-05
4.33392e-05
4.33389e-05
4.33383e-05
4.33375e-05
4.33366e-05
4.33357e-05
4.33348e-05
4.33337e-05
4.33332e-05
4.33328e-05
4.33326e-05
4.33326e-05
4.33329e-05
4.33334e-05
4.33342e-05
4.33349e-05
4.33358e-05
4.33364e-05
4.33369e-05
4.33372e-05
4.33373e-05
4.33371e-05
4.33366e-05
4.33359e-05
4.33351e-05
4.33342e-05
4.33335e-05
4.33325e-05
4.3332e-05
4.33316e-05
4.33314e-05
4.33313e-05
4.33316e-05
4.3332e-05
4.33326e-05
4.33333e-05
4.33341e-05
4.33347e-05
4.33353e-05
4.33356e-05
4.33357e-05
4.33355e-05
4.33351e-05
4.33345e-05
4.33338e-05
4.3333e-05
4.33323e-05
4.33315e-05
4.3331e-05
4.33306e-05
4.33303e-05
4.33302e-05
4.33304e-05
4.33307e-05
4.33313e-05
4.3332e-05
4.33327e-05
4.33333e-05
4.33338e-05
4.33342e-05
4.33343e-05
4.33342e-05
4.33338e-05
4.33333e-05
4.33326e-05
4.33319e-05
4.33312e-05
4.33305e-05
4.33301e-05
4.33296e-05
4.33293e-05
4.33292e-05
4.33293e-05
4.33296e-05
4.33302e-05
4.33308e-05
4.33315e-05
4.3332e-05
4.33326e-05
4.33329e-05
4.3333e-05
4.3333e-05
4.33326e-05
4.33322e-05
4.33315e-05
4.33309e-05
4.33302e-05
4.33297e-05
4.33293e-05
4.33288e-05
4.33285e-05
4.33284e-05
4.33284e-05
4.33287e-05
4.33292e-05
4.33297e-05
4.33304e-05
4.3331e-05
4.33315e-05
4.33318e-05
4.3332e-05
4.33319e-05
4.33317e-05
4.33312e-05
4.33307e-05
4.333e-05
4.33294e-05
4.33291e-05
4.33286e-05
4.33281e-05
4.33278e-05
4.33276e-05
4.33277e-05
4.33279e-05
4.33283e-05
4.33289e-05
4.33295e-05
4.33301e-05
4.33306e-05
4.33309e-05
4.33311e-05
4.33311e-05
4.33308e-05
4.33304e-05
4.33299e-05
4.33293e-05
4.33287e-05
4.33285e-05
4.33281e-05
4.33276e-05
4.33272e-05
4.33271e-05
4.33271e-05
4.33272e-05
4.33277e-05
4.33282e-05
4.33288e-05
4.33293e-05
4.33298e-05
4.33302e-05
4.33304e-05
4.33304e-05
4.33301e-05
4.33298e-05
4.33293e-05
4.33287e-05
4.33282e-05
4.33281e-05
4.33276e-05
4.33272e-05
4.33268e-05
4.33266e-05
4.33266e-05
4.33267e-05
4.33271e-05
4.33276e-05
4.33282e-05
4.33287e-05
4.33292e-05
4.33295e-05
4.33297e-05
4.33298e-05
4.33295e-05
4.33292e-05
4.33287e-05
4.33282e-05
4.33277e-05
4.33278e-05
4.33274e-05
4.33269e-05
4.33264e-05
4.33262e-05
4.33262e-05
4.33263e-05
4.33267e-05
4.33272e-05
4.33278e-05
4.33283e-05
4.33288e-05
4.33291e-05
4.33293e-05
4.33294e-05
4.33292e-05
4.33289e-05
4.33284e-05
4.33279e-05
4.33274e-05
4.33277e-05
4.33272e-05
4.33267e-05
4.33263e-05
4.33261e-05
4.33261e-05
4.33262e-05
4.33266e-05
4.3327e-05
4.33276e-05
4.33281e-05
4.33286e-05
4.33289e-05
4.33291e-05
4.33292e-05
4.3329e-05
4.33287e-05
4.33282e-05
4.33277e-05
4.33273e-05
4.33568e-05
4.33613e-05
4.33553e-05
4.33542e-05
4.33609e-05
4.33553e-05
4.33543e-05
4.33635e-05
4.3357e-05
4.33659e-05
4.33583e-05
4.33677e-05
4.33593e-05
4.33682e-05
4.33701e-05
4.33591e-05
4.33657e-05
4.33576e-05
4.33558e-05
4.33624e-05
4.97457e-05
4.76527e-05
4.51658e-05
4.31235e-05
4.19243e-05
4.16967e-05
4.23441e-05
4.36171e-05
4.51615e-05
4.65594e-05
4.7417e-05
4.75214e-05
4.69463e-05
4.6043e-05
4.53187e-05
4.52435e-05
4.61204e-05
4.78007e-05
4.9562e-05
5.0383e-05
3.25036e-05
3.52386e-05
3.85318e-05
4.1811e-05
4.46433e-05
4.68381e-05
4.84096e-05
4.94439e-05
4.98656e-05
4.92495e-05
4.73309e-05
4.45477e-05
4.16408e-05
3.90237e-05
3.67273e-05
3.47418e-05
3.29521e-05
3.14204e-05
3.05387e-05
3.08132e-05
3.94117e-05
4.1952e-05
4.42187e-05
4.59564e-05
4.71242e-05
4.7788e-05
4.81244e-05
4.82689e-05
4.76564e-05
4.48045e-05
4.06494e-05
3.79329e-05
3.76055e-05
3.84187e-05
3.88809e-05
3.84078e-05
3.70512e-05
3.58481e-05
3.57773e-05
3.70894e-05
4.30673e-05
4.4425e-05
4.54019e-05
4.59582e-05
4.62163e-05
4.6342e-05
4.64541e-05
4.6542e-05
4.48233e-05
3.8841e-05
3.49351e-05
3.77983e-05
4.43958e-05
4.92013e-05
5.05297e-05
4.84909e-05
4.49071e-05
4.20579e-05
4.10499e-05
4.16474e-05
4.52799e-05
4.54244e-05
4.548e-05
4.54923e-05
4.5516e-05
4.55643e-05
4.56619e-05
4.56877e-05
4.20846e-05
3.42642e-05
3.59772e-05
4.92744e-05
6.56026e-05
7.66456e-05
7.77095e-05
6.92384e-05
5.80521e-05
4.99839e-05
4.62281e-05
4.51856e-05
4.55607e-05
4.52468e-05
4.5061e-05
4.4974e-05
4.49668e-05
4.50104e-05
4.51123e-05
4.50927e-05
4.04031e-05
3.33187e-05
4.11401e-05
6.20175e-05
8.21727e-05
9.13824e-05
8.66715e-05
7.31119e-05
5.96693e-05
5.12995e-05
4.7511e-05
4.60592e-05
4.54021e-05
4.49484e-05
4.47291e-05
4.46577e-05
4.46708e-05
4.47233e-05
4.48202e-05
4.4773e-05
4.01802e-05
3.30569e-05
4.13652e-05
6.43897e-05
8.82761e-05
9.78002e-05
8.98213e-05
7.35655e-05
5.9611e-05
5.15953e-05
4.78769e-05
4.61731e-05
4.50167e-05
4.46424e-05
4.4492e-05
4.4453e-05
4.447e-05
4.45173e-05
4.45992e-05
4.46904e-05
4.30898e-05
3.53301e-05
3.55109e-05
4.80176e-05
6.77193e-05
8.05548e-05
7.77903e-05
6.657e-05
5.648e-05
5.04735e-05
4.73648e-05
4.57653e-05
4.45349e-05
4.43771e-05
4.43292e-05
4.43314e-05
4.43579e-05
4.44028e-05
4.44686e-05
4.458e-05
4.46724e-05
3.89531e-05
3.235e-05
2.78179e-05
3.546e-05
4.83506e-05
5.33224e-05
5.19215e-05
4.92094e-05
4.70852e-05
4.5693e-05
4.48989e-05
4.42869e-05
4.42525e-05
4.42481e-05
4.42589e-05
4.42804e-05
4.43161e-05
4.43666e-05
4.44627e-05
4.4583e-05
3.85463e-05
3.14753e-05
2.4959e-05
2.55526e-05
3.31051e-05
3.99614e-05
4.35664e-05
4.47587e-05
4.48096e-05
4.45683e-05
4.43765e-05
4.41966e-05
4.41985e-05
4.42053e-05
4.4218e-05
4.42358e-05
4.42641e-05
4.43018e-05
4.43798e-05
4.44648e-05
3.77794e-05
3.05321e-05
2.46145e-05
2.43954e-05
3.02468e-05
3.69532e-05
4.13109e-05
4.33066e-05
4.39908e-05
4.41649e-05
4.41937e-05
4.4167e-05
4.41738e-05
4.41803e-05
4.41899e-05
4.42029e-05
4.4224e-05
4.42532e-05
4.43145e-05
4.43885e-05
3.70246e-05
3.00583e-05
2.50032e-05
2.55298e-05
3.11608e-05
3.72475e-05
4.12036e-05
4.31072e-05
4.38438e-05
4.40824e-05
4.41487e-05
4.41519e-05
4.41587e-05
4.41645e-05
4.41724e-05
4.41825e-05
4.41978e-05
4.42195e-05
4.42631e-05
4.43199e-05
3.67491e-05
2.91532e-05
2.37667e-05
2.529e-05
3.15291e-05
3.75744e-05
4.13459e-05
4.31399e-05
4.38376e-05
4.40674e-05
4.41332e-05
4.41427e-05
4.41487e-05
4.41533e-05
4.41593e-05
4.41669e-05
4.41778e-05
4.41938e-05
4.42242e-05
4.4301e-05
3.69381e-05
3.02615e-05
2.52844e-05
2.65907e-05
3.23532e-05
3.7979e-05
4.15081e-05
4.31924e-05
4.38478e-05
4.40634e-05
4.41252e-05
4.41369e-05
4.41418e-05
4.41456e-05
4.41503e-05
4.41561e-05
4.4164e-05
4.41758e-05
4.4196e-05
4.42636e-05
3.64821e-05
2.8602e-05
2.41692e-05
2.67502e-05
3.29435e-05
3.84419e-05
4.17503e-05
4.32901e-05
4.38779e-05
4.40682e-05
4.41219e-05
4.41334e-05
4.41366e-05
4.41393e-05
4.41429e-05
4.41473e-05
4.41529e-05
4.41594e-05
4.41689e-05
4.4173e-05
3.66101e-05
2.65455e-05
2.34721e-05
2.76889e-05
3.43647e-05
3.95491e-05
4.23508e-05
4.35417e-05
4.39627e-05
4.40902e-05
4.41241e-05
4.41316e-05
4.41326e-05
4.41344e-05
4.41372e-05
4.41407e-05
4.41452e-05
4.41503e-05
4.41567e-05
4.41591e-05
4.3355e-05
4.29072e-05
4.3157e-05
4.35694e-05
4.38132e-05
4.39301e-05
4.40336e-05
4.40964e-05
4.41221e-05
4.41293e-05
4.41305e-05
4.4128e-05
4.41286e-05
4.41299e-05
4.41321e-05
4.41349e-05
4.41385e-05
4.41422e-05
4.4147e-05
4.4152e-05
4.4134e-05
4.4124e-05
4.41294e-05
4.41398e-05
4.41434e-05
4.41415e-05
4.41382e-05
4.41348e-05
4.41317e-05
4.41292e-05
4.41277e-05
4.41248e-05
4.41251e-05
4.41261e-05
4.41278e-05
4.413e-05
4.41329e-05
4.4136e-05
4.41393e-05
4.41417e-05
4.41434e-05
4.41419e-05
4.41415e-05
4.4143e-05
4.41422e-05
4.41398e-05
4.41362e-05
4.41323e-05
4.41289e-05
4.41263e-05
4.41247e-05
4.41218e-05
4.41218e-05
4.41225e-05
4.41239e-05
4.41257e-05
4.41281e-05
4.41307e-05
4.41336e-05
4.4136e-05
4.41376e-05
4.41369e-05
4.41361e-05
4.41363e-05
4.41358e-05
4.41341e-05
4.41312e-05
4.41281e-05
4.41253e-05
4.41231e-05
4.41217e-05
4.4119e-05
4.41189e-05
4.41193e-05
4.41203e-05
4.41218e-05
4.41238e-05
4.41259e-05
4.41282e-05
4.413e-05
4.41315e-05
4.41314e-05
4.41315e-05
4.4132e-05
4.41314e-05
4.41299e-05
4.41275e-05
4.41249e-05
4.41224e-05
4.41204e-05
4.4119e-05
4.41163e-05
4.41161e-05
4.41163e-05
4.41171e-05
4.41183e-05
4.412e-05
4.41218e-05
4.41239e-05
4.41256e-05
4.41271e-05
4.41272e-05
4.41272e-05
4.41273e-05
4.41268e-05
4.41256e-05
4.41237e-05
4.41215e-05
4.41194e-05
4.41176e-05
4.41163e-05
4.41138e-05
4.41135e-05
4.41136e-05
4.41142e-05
4.41151e-05
4.41165e-05
4.4118e-05
4.41198e-05
4.41213e-05
4.41226e-05
4.4123e-05
4.41234e-05
4.41237e-05
4.41233e-05
4.41222e-05
4.41206e-05
4.41187e-05
4.41168e-05
4.41151e-05
4.41139e-05
4.41115e-05
4.41112e-05
4.41111e-05
4.41115e-05
4.41123e-05
4.41134e-05
4.41148e-05
4.41164e-05
4.41177e-05
4.4119e-05
4.41195e-05
4.41198e-05
4.412e-05
4.41197e-05
4.41188e-05
4.41175e-05
4.41158e-05
4.41142e-05
4.41127e-05
4.41116e-05
4.41094e-05
4.4109e-05
4.41089e-05
4.41091e-05
4.41097e-05
4.41106e-05
4.41118e-05
4.41132e-05
4.41144e-05
4.41155e-05
4.41161e-05
4.41166e-05
4.41169e-05
4.41166e-05
4.41159e-05
4.41148e-05
4.41133e-05
4.41119e-05
4.41105e-05
4.41094e-05
4.41074e-05
4.4107e-05
4.41068e-05
4.41069e-05
4.41074e-05
4.41082e-05
4.41091e-05
4.41104e-05
4.41115e-05
4.41126e-05
4.41132e-05
4.41137e-05
4.41139e-05
4.41138e-05
4.41132e-05
4.41122e-05
4.4111e-05
4.41097e-05
4.41085e-05
4.41074e-05
4.41056e-05
4.41051e-05
4.41049e-05
4.41049e-05
4.41053e-05
4.41059e-05
4.41068e-05
4.41078e-05
4.41088e-05
4.41099e-05
4.41105e-05
4.4111e-05
4.41113e-05
4.41112e-05
4.41108e-05
4.41099e-05
4.41088e-05
4.41077e-05
4.41066e-05
4.41056e-05
4.41039e-05
4.41035e-05
4.41032e-05
4.41032e-05
4.41034e-05
4.41039e-05
4.41046e-05
4.41056e-05
4.41065e-05
4.41075e-05
4.41081e-05
4.41087e-05
4.41089e-05
4.41089e-05
4.41085e-05
4.41078e-05
4.41069e-05
4.41058e-05
4.41048e-05
4.41039e-05
4.41024e-05
4.4102e-05
4.41016e-05
4.41016e-05
4.41017e-05
4.41021e-05
4.41027e-05
4.41036e-05
4.41044e-05
4.41053e-05
4.4106e-05
4.41065e-05
4.41068e-05
4.41068e-05
4.41065e-05
4.41059e-05
4.41051e-05
4.41042e-05
4.41032e-05
4.41024e-05
4.41011e-05
4.41006e-05
4.41003e-05
4.41001e-05
4.41002e-05
4.41006e-05
4.41011e-05
4.41019e-05
4.41026e-05
4.41035e-05
4.41041e-05
4.41046e-05
4.41049e-05
4.4105e-05
4.41047e-05
4.41042e-05
4.41035e-05
4.41027e-05
4.41018e-05
4.4101e-05
4.40999e-05
4.40994e-05
4.4099e-05
4.40989e-05
4.40989e-05
4.40992e-05
4.40996e-05
4.41003e-05
4.4101e-05
4.41018e-05
4.41024e-05
4.41029e-05
4.41033e-05
4.41034e-05
4.41032e-05
4.41027e-05
4.41021e-05
4.41013e-05
4.41005e-05
4.40998e-05
4.40988e-05
4.40984e-05
4.4098e-05
4.40977e-05
4.40977e-05
4.40979e-05
4.40983e-05
4.4099e-05
4.40996e-05
4.41004e-05
4.41009e-05
4.41015e-05
4.41018e-05
4.41019e-05
4.41018e-05
4.41014e-05
4.41008e-05
4.41001e-05
4.40994e-05
4.40987e-05
4.40979e-05
4.40974e-05
4.4097e-05
4.40968e-05
4.40967e-05
4.40969e-05
4.40972e-05
4.40978e-05
4.40984e-05
4.40991e-05
4.40997e-05
4.41002e-05
4.41005e-05
4.41007e-05
4.41006e-05
4.41002e-05
4.40997e-05
4.40991e-05
4.40984e-05
4.40978e-05
4.40971e-05
4.40966e-05
4.40962e-05
4.40959e-05
4.40958e-05
4.4096e-05
4.40962e-05
4.40968e-05
4.40973e-05
4.4098e-05
4.40986e-05
4.40991e-05
4.40994e-05
4.40996e-05
4.40995e-05
4.40992e-05
4.40988e-05
4.40982e-05
4.40975e-05
4.4097e-05
4.40964e-05
4.4096e-05
4.40955e-05
4.40952e-05
4.40951e-05
4.40952e-05
4.40954e-05
4.40959e-05
4.40965e-05
4.40971e-05
4.40976e-05
4.40982e-05
4.40985e-05
4.40987e-05
4.40986e-05
4.40984e-05
4.4098e-05
4.40974e-05
4.40968e-05
4.40962e-05
4.40959e-05
4.40954e-05
4.4095e-05
4.40946e-05
4.40945e-05
4.40946e-05
4.40947e-05
4.40952e-05
4.40957e-05
4.40964e-05
4.40969e-05
4.40974e-05
4.40977e-05
4.40979e-05
4.40979e-05
4.40977e-05
4.40973e-05
4.40968e-05
4.40962e-05
4.40957e-05
4.40954e-05
4.4095e-05
4.40945e-05
4.40942e-05
4.4094e-05
4.4094e-05
4.40942e-05
4.40947e-05
4.40952e-05
4.40958e-05
4.40963e-05
4.40968e-05
4.40971e-05
4.40973e-05
4.40973e-05
4.40971e-05
4.40967e-05
4.40963e-05
4.40957e-05
4.40952e-05
4.40951e-05
4.40947e-05
4.40942e-05
4.40938e-05
4.40937e-05
4.40937e-05
4.40938e-05
4.40943e-05
4.40947e-05
4.40954e-05
4.40958e-05
4.40964e-05
4.40967e-05
4.40969e-05
4.40969e-05
4.40967e-05
4.40964e-05
4.40959e-05
4.40954e-05
4.40949e-05
4.4095e-05
4.40946e-05
4.40941e-05
4.40937e-05
4.40935e-05
4.40935e-05
4.40937e-05
4.40941e-05
4.40946e-05
4.40952e-05
4.40956e-05
4.40962e-05
4.40965e-05
4.40967e-05
4.40967e-05
4.40965e-05
4.40962e-05
4.40957e-05
4.40952e-05
4.40948e-05
4.41235e-05
4.41275e-05
4.4122e-05
4.41211e-05
4.41272e-05
4.41221e-05
4.41214e-05
4.41299e-05
4.41239e-05
4.41323e-05
4.41251e-05
4.41341e-05
4.41262e-05
4.41345e-05
4.41361e-05
4.41258e-05
4.4132e-05
4.41244e-05
4.41228e-05
4.41288e-05
4.98338e-05
4.78067e-05
4.54903e-05
4.36486e-05
4.26302e-05
4.25536e-05
4.33186e-05
4.46669e-05
4.62295e-05
4.75699e-05
4.82826e-05
4.81684e-05
4.73469e-05
4.62335e-05
4.53917e-05
4.53135e-05
4.62764e-05
4.8048e-05
4.98102e-05
5.05305e-05
3.30794e-05
3.61442e-05
3.95992e-05
4.29042e-05
4.56857e-05
4.78072e-05
4.9309e-05
5.02846e-05
5.06338e-05
4.98682e-05
4.76907e-05
4.45847e-05
4.1367e-05
3.85016e-05
3.60394e-05
3.39662e-05
3.21825e-05
3.07984e-05
3.02322e-05
3.09423e-05
4.01089e-05
4.2814e-05
4.51208e-05
4.6834e-05
4.79536e-05
4.85728e-05
4.88845e-05
4.90193e-05
4.83527e-05
4.52235e-05
4.05659e-05
3.7269e-05