/*--------------------------------*- C++ -*----------------------------------*\
| =========                 |                                                 |
| \\      /  F ield         | OpenFOAM: The Open Source CFD Toolbox           |
|  \\    /   O peration     | Version:  2.4.0                                 |
|   \\  /    A nd           | Web:      www.OpenFOAM.org                      |
|    \\/     M anipulation  |                                                 |
\*---------------------------------------------------------------------------*/
FoamFile
{
    version     2.0;
    format      ascii;
    class       volScalarField;
    location    "90";
    object      nut;
}
// * * * * * * * * * * * * * * * * * * * * * * * * * * * * * * * * * * * * * //

dimensions      [0 2 -1 0 0 0 0];

internalField   nonuniform List<scalar> 
283312
(
6.59787e-06
6.80173e-06
6.59929e-06
6.08312e-06
5.48123e-06
5.00303e-06
4.73288e-06
4.65042e-06
4.68958e-06
4.77096e-06
4.81915e-06
4.78762e-06
4.6758e-06
4.52403e-06
4.39291e-06
4.35291e-06
4.47227e-06
4.79085e-06
5.29131e-06
5.8784e-06
3.4913e-06
3.63916e-06
3.84191e-06
4.09937e-06
4.37846e-06
4.64107e-06
4.85855e-06
5.01549e-06
5.08246e-06
4.96207e-06
4.58937e-06
4.07786e-06
3.61738e-06
3.3011e-06
3.12093e-06
3.04104e-06
3.03481e-06
3.08135e-06
3.16844e-06
3.2875e-06
3.94374e-06
4.17119e-06
4.42278e-06
4.64911e-06
4.82027e-06
4.92883e-06
4.98696e-06
5.00913e-06
4.84161e-06
4.07424e-06
3.03338e-06
2.37852e-06
2.20193e-06
2.32876e-06
2.60749e-06
2.94346e-06
3.24611e-06
3.46868e-06
3.60876e-06
3.72897e-06
4.3831e-06
4.56953e-06
4.71123e-06
4.80112e-06
4.84696e-06
4.86662e-06
4.87673e-06
4.86521e-06
4.25273e-06
2.63709e-06
1.69502e-06
1.61344e-06
1.95829e-06
2.41394e-06
2.85188e-06
3.21053e-06
3.48039e-06
3.70858e-06
3.92444e-06
4.13796e-06
4.65719e-06
4.76715e-06
4.80212e-06
4.80922e-06
4.80898e-06
4.80925e-06
4.81272e-06
4.76798e-06
3.49771e-06
1.72261e-06
1.37925e-06
1.87627e-06
2.72182e-06
3.5535e-06
4.11487e-06
4.2227e-06
4.06588e-06
3.98347e-06
4.13414e-06
4.40269e-06
4.76994e-06
4.80047e-06
4.78687e-06
4.77254e-06
4.76574e-06
4.76506e-06
4.76901e-06
4.69808e-06
3.06029e-06
1.48467e-06
1.53242e-06
2.41681e-06
3.54686e-06
4.42549e-06
4.73976e-06
4.53585e-06
4.19984e-06
4.11258e-06
4.32307e-06
4.59212e-06
4.74718e-06
4.77123e-06
4.75566e-06
4.74371e-06
4.74003e-06
4.74122e-06
4.74569e-06
4.6643e-06
3.0171e-06
1.49697e-06
1.57765e-06
2.49412e-06
3.64673e-06
4.42361e-06
4.55168e-06
4.2265e-06
3.91297e-06
3.93586e-06
4.25481e-06
4.57479e-06
4.7688e-06
4.75445e-06
4.73495e-06
4.72576e-06
4.72378e-06
4.72551e-06
4.73014e-06
4.72074e-06
3.96257e-06
2.20291e-06
1.69827e-06
2.02633e-06
2.89828e-06
3.74521e-06
4.07699e-06
3.99208e-06
3.93032e-06
4.1413e-06
4.48632e-06
4.70109e-06
4.74447e-06
4.72681e-06
4.71676e-06
4.71367e-06
4.71404e-06
4.71628e-06
4.7202e-06
4.72707e-06
4.70446e-06
3.70164e-06
2.57599e-06
1.50204e-06
1.62892e-06
2.39896e-06
3.03693e-06
3.46618e-06
3.91258e-06
4.37732e-06
4.66267e-06
4.74279e-06
4.71702e-06
4.71071e-06
4.70799e-06
4.70751e-06
4.70822e-06
4.71002e-06
4.71296e-06
4.71897e-06
4.72266e-06
3.74849e-06
2.64056e-06
1.66195e-06
1.39726e-06
1.88757e-06
2.65793e-06
3.4776e-06
4.17305e-06
4.56984e-06
4.70232e-06
4.72077e-06
4.70481e-06
4.70419e-06
4.70389e-06
4.70415e-06
4.70484e-06
4.70624e-06
4.70838e-06
4.71322e-06
4.71521e-06
3.6376e-06
2.4671e-06
1.73903e-06
1.60631e-06
2.13917e-06
3.0381e-06
3.88204e-06
4.40268e-06
4.62199e-06
4.68791e-06
4.70197e-06
4.70144e-06
4.70196e-06
4.70203e-06
4.70224e-06
4.70267e-06
4.70361e-06
4.70517e-06
4.70889e-06
4.71048e-06
3.54183e-06
2.40728e-06
1.81363e-06
1.86944e-06
2.54094e-06
3.42649e-06
4.11023e-06
4.47851e-06
4.63061e-06
4.68202e-06
4.69679e-06
4.70016e-06
4.70079e-06
4.70091e-06
4.70108e-06
4.70137e-06
4.70196e-06
4.70303e-06
4.70556e-06
4.7063e-06
3.48435e-06
2.31895e-06
1.73275e-06
1.91547e-06
2.69263e-06
3.56766e-06
4.18451e-06
4.50397e-06
4.63605e-06
4.68186e-06
4.6956e-06
4.69958e-06
4.70018e-06
4.70028e-06
4.70037e-06
4.70052e-06
4.70084e-06
4.70154e-06
4.70318e-06
4.70546e-06
3.48005e-06
2.38244e-06
1.84843e-06
2.0409e-06
2.79546e-06
3.63041e-06
4.21406e-06
4.51519e-06
4.63938e-06
4.68236e-06
4.69524e-06
4.69932e-06
4.69982e-06
4.69989e-06
4.69994e-06
4.70001e-06
4.70016e-06
4.70059e-06
4.70159e-06
4.70365e-06
3.44896e-06
2.28328e-06
1.80015e-06
2.10455e-06
2.90295e-06
3.71641e-06
4.26166e-06
4.5357e-06
4.64654e-06
4.6843e-06
4.69548e-06
4.69948e-06
4.69967e-06
4.69967e-06
4.69966e-06
4.69967e-06
4.6997e-06
4.6998e-06
4.70009e-06
4.70037e-06
3.66023e-06
2.40119e-06
1.97593e-06
2.39746e-06
3.21743e-06
3.9491e-06
4.3881e-06
4.58977e-06
4.66565e-06
4.69e-06
4.69685e-06
4.69978e-06
4.69962e-06
4.69953e-06
4.6995e-06
4.69947e-06
4.69946e-06
4.6995e-06
4.69961e-06
4.6994e-06
4.57728e-06
4.50623e-06
4.54177e-06
4.60532e-06
4.64506e-06
4.66302e-06
4.67977e-06
4.69103e-06
4.69631e-06
4.6982e-06
4.69875e-06
4.69972e-06
4.69953e-06
4.69943e-06
4.69938e-06
4.69932e-06
4.69927e-06
4.69925e-06
4.69928e-06
4.69937e-06
4.69622e-06
4.69472e-06
4.69576e-06
4.69728e-06
4.69802e-06
4.6982e-06
4.69843e-06
4.69865e-06
4.69877e-06
4.69881e-06
4.69882e-06
4.69965e-06
4.69946e-06
4.69936e-06
4.6993e-06
4.69923e-06
4.69916e-06
4.69912e-06
4.69909e-06
4.69904e-06
4.69895e-06
4.6988e-06
4.69876e-06
4.69879e-06
4.69877e-06
4.69878e-06
4.69879e-06
4.69879e-06
4.69878e-06
4.69877e-06
4.69877e-06
4.69961e-06
4.69942e-06
4.69932e-06
4.69924e-06
4.69915e-06
4.69908e-06
4.69902e-06
4.69899e-06
4.69896e-06
4.69888e-06
4.69877e-06
4.69869e-06
4.69867e-06
4.69869e-06
4.69873e-06
4.69874e-06
4.69874e-06
4.69873e-06
4.69872e-06
4.69872e-06
4.69957e-06
4.69938e-06
4.69928e-06
4.6992e-06
4.6991e-06
4.69901e-06
4.69895e-06
4.6989e-06
4.69886e-06
4.6988e-06
4.69873e-06
4.69869e-06
4.69867e-06
4.69867e-06
4.69868e-06
4.69869e-06
4.6987e-06
4.6987e-06
4.69869e-06
4.69869e-06
4.69955e-06
4.69936e-06
4.69925e-06
4.69916e-06
4.69906e-06
4.69897e-06
4.6989e-06
4.69885e-06
4.69882e-06
4.69877e-06
4.69871e-06
4.69866e-06
4.69864e-06
4.69864e-06
4.69866e-06
4.69867e-06
4.69867e-06
4.69867e-06
4.69867e-06
4.69867e-06
4.69953e-06
4.69934e-06
4.69923e-06
4.69914e-06
4.69903e-06
4.69893e-06
4.69885e-06
4.6988e-06
4.69877e-06
4.69873e-06
4.69868e-06
4.69865e-06
4.69864e-06
4.69863e-06
4.69864e-06
4.69865e-06
4.69865e-06
4.69865e-06
4.69865e-06
4.69865e-06
4.69951e-06
4.69932e-06
4.69921e-06
4.69912e-06
4.699e-06
4.6989e-06
4.69882e-06
4.69877e-06
4.69874e-06
4.6987e-06
4.69867e-06
4.69864e-06
4.69862e-06
4.69862e-06
4.69863e-06
4.69863e-06
4.69863e-06
4.69863e-06
4.69863e-06
4.69863e-06
4.69949e-06
4.6993e-06
4.69919e-06
4.6991e-06
4.69898e-06
4.69887e-06
4.69879e-06
4.69874e-06
4.6987e-06
4.69868e-06
4.69865e-06
4.69862e-06
4.69861e-06
4.69861e-06
4.69861e-06
4.69861e-06
4.69862e-06
4.69861e-06
4.69861e-06
4.69861e-06
4.69948e-06
4.69929e-06
4.69918e-06
4.69908e-06
4.69896e-06
4.69885e-06
4.69877e-06
4.69871e-06
4.69868e-06
4.69866e-06
4.69863e-06
4.69861e-06
4.6986e-06
4.69859e-06
4.6986e-06
4.6986e-06
4.6986e-06
4.6986e-06
4.6986e-06
4.6986e-06
4.69947e-06
4.69928e-06
4.69917e-06
4.69907e-06
4.69894e-06
4.69883e-06
4.69874e-06
4.69869e-06
4.69866e-06
4.69864e-06
4.69862e-06
4.6986e-06
4.69859e-06
4.69858e-06
4.69858e-06
4.69858e-06
4.69858e-06
4.69858e-06
4.69858e-06
4.69859e-06
4.69946e-06
4.69927e-06
4.69916e-06
4.69905e-06
4.69893e-06
4.69881e-06
4.69873e-06
4.69867e-06
4.69864e-06
4.69862e-06
4.6986e-06
4.69858e-06
4.69857e-06
4.69857e-06
4.69857e-06
4.69857e-06
4.69857e-06
4.69857e-06
4.69857e-06
4.69857e-06
4.69945e-06
4.69926e-06
4.69915e-06
4.69904e-06
4.69892e-06
4.6988e-06
4.69871e-06
4.69866e-06
4.69863e-06
4.69861e-06
4.69859e-06
4.69857e-06
4.69856e-06
4.69855e-06
4.69855e-06
4.69855e-06
4.69855e-06
4.69855e-06
4.69856e-06
4.69856e-06
4.69944e-06
4.69925e-06
4.69914e-06
4.69903e-06
4.6989e-06
4.69878e-06
4.6987e-06
4.69864e-06
4.69861e-06
4.69859e-06
4.69857e-06
4.69856e-06
4.69855e-06
4.69854e-06
4.69853e-06
4.69853e-06
4.69853e-06
4.69853e-06
4.69854e-06
4.69855e-06
4.69943e-06
4.69924e-06
4.69913e-06
4.69903e-06
4.6989e-06
4.69877e-06
4.69869e-06
4.69863e-06
4.6986e-06
4.69858e-06
4.69857e-06
4.69855e-06
4.69854e-06
4.69853e-06
4.69852e-06
4.69852e-06
4.69852e-06
4.69852e-06
4.69853e-06
4.69854e-06
4.69942e-06
4.69923e-06
4.69912e-06
4.69901e-06
4.69888e-06
4.69876e-06
4.69867e-06
4.69862e-06
4.69859e-06
4.69857e-06
4.69855e-06
4.69853e-06
4.69852e-06
4.69851e-06
4.6985e-06
4.69849e-06
4.6985e-06
4.6985e-06
4.69851e-06
4.69852e-06
4.69942e-06
4.69923e-06
4.69912e-06
4.69901e-06
4.69888e-06
4.69875e-06
4.69867e-06
4.69861e-06
4.69859e-06
4.69856e-06
4.69855e-06
4.69853e-06
4.69851e-06
4.6985e-06
4.69849e-06
4.69848e-06
4.69848e-06
4.69849e-06
4.6985e-06
4.69852e-06
4.6994e-06
4.69922e-06
4.6991e-06
4.69899e-06
4.69886e-06
4.69874e-06
4.69865e-06
4.6986e-06
4.69857e-06
4.69855e-06
4.69853e-06
4.69851e-06
4.69849e-06
4.69848e-06
4.69847e-06
4.69846e-06
4.69846e-06
4.69846e-06
4.69848e-06
4.6985e-06
4.69941e-06
4.69922e-06
4.69911e-06
4.699e-06
4.69887e-06
4.69874e-06
4.69865e-06
4.6986e-06
4.69858e-06
4.69855e-06
4.69853e-06
4.69851e-06
4.69849e-06
4.69848e-06
4.69846e-06
4.69845e-06
4.69845e-06
4.69845e-06
4.69847e-06
4.6985e-06
4.69939e-06
4.69921e-06
4.69909e-06
4.69898e-06
4.69885e-06
4.69872e-06
4.69864e-06
4.69859e-06
4.69856e-06
4.69854e-06
4.69852e-06
4.69849e-06
4.69847e-06
4.69845e-06
4.69844e-06
4.69842e-06
4.69842e-06
4.69842e-06
4.69845e-06
4.69848e-06
4.69941e-06
4.69923e-06
4.69911e-06
4.69899e-06
4.69886e-06
4.69873e-06
4.69865e-06
4.6986e-06
4.69858e-06
4.69855e-06
4.69853e-06
4.6985e-06
4.69848e-06
4.69846e-06
4.69843e-06
4.69842e-06
4.69841e-06
4.69842e-06
4.69844e-06
4.69848e-06
4.69939e-06
4.69921e-06
4.69909e-06
4.69897e-06
4.69884e-06
4.69871e-06
4.69863e-06
4.69858e-06
4.69856e-06
4.69854e-06
4.69851e-06
4.69848e-06
4.69846e-06
4.69844e-06
4.69841e-06
4.69839e-06
4.69838e-06
4.69838e-06
4.69841e-06
4.69846e-06
4.69942e-06
4.69924e-06
4.69912e-06
4.699e-06
4.69887e-06
4.69874e-06
4.69866e-06
4.69861e-06
4.6986e-06
4.69857e-06
4.69854e-06
4.69851e-06
4.69848e-06
4.69845e-06
4.69842e-06
4.69839e-06
4.69838e-06
4.69839e-06
4.69842e-06
4.69848e-06
4.7017e-06
4.70187e-06
4.70136e-06
4.70119e-06
4.70154e-06
4.70104e-06
4.70088e-06
4.70144e-06
4.70095e-06
4.70149e-06
4.7009e-06
4.70149e-06
4.70087e-06
4.70144e-06
4.70155e-06
4.70077e-06
4.70122e-06
4.70068e-06
4.70061e-06
4.70116e-06
6.43092e-06
6.61443e-06
6.39811e-06
5.89463e-06
5.33213e-06
4.90247e-06
4.6744e-06
4.62018e-06
4.6731e-06
4.75329e-06
4.78493e-06
4.72396e-06
4.57658e-06
4.39187e-06
4.23893e-06
4.18999e-06
4.31289e-06
4.64158e-06
5.14903e-06
5.73086e-06
3.4018e-06
3.59349e-06
3.83083e-06
4.10847e-06
4.39445e-06
4.65492e-06
4.86482e-06
5.01286e-06
5.06837e-06
4.9253e-06
4.5161e-06
3.96587e-06
3.475e-06
3.13823e-06
2.94495e-06
2.85863e-06
2.85189e-06
2.90638e-06
3.0129e-06
3.16291e-06
3.89071e-06
4.16046e-06
4.4303e-06
4.65969e-06
4.82661e-06
4.92883e-06
4.98239e-06
5.00186e-06
4.82458e-06
4.01475e-06
2.9263e-06
2.23669e-06
2.02583e-06
2.1153e-06
2.35896e-06
2.6665e-06
2.96323e-06
3.21443e-06
3.41727e-06
3.61485e-06
4.33408e-06
4.55775e-06
4.71172e-06
4.80283e-06
4.84713e-06
4.86578e-06
4.87561e-06
4.8641e-06
4.23884e-06
2.56345e-06
1.57448e-06
1.43272e-06
1.69271e-06
2.06076e-06
2.43077e-06
2.7562e-06
3.04738e-06
3.35722e-06
3.69305e-06
4.01924e-06
4.57227e-06
4.7317e-06
4.78863e-06
4.80464e-06
4.80815e-06
4.80999e-06
4.81422e-06
4.77016e-06
3.47998e-06
1.63484e-06
1.22276e-06
1.59874e-06
2.28016e-06
2.95203e-06
3.39153e-06
3.47754e-06
3.40896e-06
3.48586e-06
3.81367e-06
4.23e-06
4.69505e-06
4.77097e-06
4.77745e-06
4.77124e-06
4.76766e-06
4.76818e-06
4.77263e-06
4.70235e-06
3.03446e-06
1.37753e-06
1.32563e-06
2.02459e-06
2.92116e-06
3.60275e-06
3.82685e-06
3.67311e-06
3.4946e-06
3.60847e-06
4.01414e-06
4.43326e-06
4.68522e-06
4.74855e-06
4.75015e-06
4.74489e-06
4.74361e-06
4.74558e-06
4.75035e-06
4.66948e-06
2.9888e-06
1.3865e-06
1.3685e-06
2.08926e-06
2.98252e-06
3.55418e-06
3.62006e-06
3.38411e-06
3.24758e-06
3.47209e-06
3.97903e-06
4.43829e-06
4.73041e-06
4.74338e-06
4.73471e-06
4.72932e-06
4.72858e-06
4.73067e-06
4.73543e-06
4.72612e-06
3.95389e-06
2.10347e-06
1.53374e-06
1.7388e-06
2.39543e-06
3.01957e-06
3.25272e-06
3.23212e-06
3.33585e-06
3.74675e-06
4.27161e-06
4.60531e-06
4.73243e-06
4.72648e-06
4.7206e-06
4.71882e-06
4.71955e-06
4.72189e-06
4.72582e-06
4.73272e-06
4.70952e-06
3.65034e-06
2.48556e-06
1.37627e-06
1.40106e-06
1.98627e-06
2.51092e-06
2.96448e-06
3.53579e-06
4.15469e-06
4.55818e-06
4.70319e-06
4.71828e-06
4.71509e-06
4.7134e-06
4.71324e-06
4.71404e-06
4.71588e-06
4.71882e-06
4.72484e-06
4.72816e-06
3.70874e-06
2.58955e-06
1.59498e-06
1.28026e-06
1.68304e-06
2.40257e-06
3.25257e-06
4.02803e-06
4.49829e-06
4.67492e-06
4.71418e-06
4.70999e-06
4.70987e-06
4.70977e-06
4.71011e-06
4.71083e-06
4.71225e-06
4.71438e-06
4.71923e-06
4.72082e-06
3.59767e-06
2.4196e-06
1.69634e-06
1.55754e-06
2.07434e-06
2.97331e-06
3.83754e-06
4.38084e-06
4.61513e-06
4.68874e-06
4.70613e-06
4.70739e-06
4.70794e-06
4.70805e-06
4.7083e-06
4.70876e-06
4.70972e-06
4.71128e-06
4.71501e-06
4.71628e-06
3.50255e-06
2.37206e-06
1.79264e-06
1.8628e-06
2.54911e-06
3.44334e-06
4.12688e-06
4.49093e-06
4.63949e-06
4.68907e-06
4.70314e-06
4.70628e-06
4.70687e-06
4.70701e-06
4.70721e-06
4.70752e-06
4.70813e-06
4.70921e-06
4.71175e-06
4.71221e-06
3.44508e-06
2.28662e-06
1.71899e-06
1.92501e-06
2.72285e-06
3.60333e-06
4.21252e-06
4.52185e-06
4.64717e-06
4.68976e-06
4.70227e-06
4.70575e-06
4.70631e-06
4.70642e-06
4.70654e-06
4.70671e-06
4.70706e-06
4.70777e-06
4.70942e-06
4.71149e-06
3.441e-06
2.35521e-06
1.83932e-06
2.05412e-06
2.82869e-06
3.66794e-06
4.24291e-06
4.53336e-06
4.65059e-06
4.69031e-06
4.70197e-06
4.70551e-06
4.70597e-06
4.70606e-06
4.70613e-06
4.70623e-06
4.70641e-06
4.70686e-06
4.70786e-06
4.70977e-06
3.40719e-06
2.25053e-06
1.78984e-06
2.11937e-06
2.93696e-06
3.75304e-06
4.28913e-06
4.55288e-06
4.65728e-06
4.69209e-06
4.70218e-06
4.70564e-06
4.70584e-06
4.70586e-06
4.70588e-06
4.7059e-06
4.70596e-06
4.70608e-06
4.70639e-06
4.70659e-06
3.62264e-06
2.35417e-06
1.95845e-06
2.41477e-06
3.25416e-06
3.98385e-06
4.41184e-06
4.60418e-06
4.675e-06
4.69726e-06
4.7034e-06
4.7059e-06
4.70579e-06
4.70573e-06
4.70572e-06
4.70571e-06
4.70573e-06
4.70579e-06
4.70592e-06
4.70571e-06
4.57825e-06
4.50864e-06
4.54809e-06
4.61288e-06
4.65209e-06
4.67037e-06
4.68707e-06
4.69791e-06
4.70285e-06
4.70457e-06
4.70506e-06
4.70585e-06
4.7057e-06
4.70564e-06
4.70561e-06
4.70558e-06
4.70555e-06
4.70555e-06
4.70559e-06
4.7057e-06
4.70242e-06
4.70099e-06
4.70211e-06
4.70365e-06
4.70437e-06
4.70455e-06
4.70477e-06
4.70498e-06
4.70508e-06
4.70511e-06
4.70512e-06
4.70579e-06
4.70565e-06
4.70558e-06
4.70553e-06
4.70549e-06
4.70545e-06
4.70542e-06
4.70541e-06
4.70537e-06
4.70528e-06
4.70514e-06
4.70511e-06
4.70513e-06
4.70512e-06
4.70512e-06
4.70512e-06
4.70511e-06
4.7051e-06
4.70508e-06
4.70508e-06
4.70575e-06
4.70561e-06
4.70553e-06
4.70548e-06
4.70542e-06
4.70537e-06
4.70533e-06
4.70531e-06
4.70529e-06
4.70522e-06
4.70511e-06
4.70503e-06
4.70502e-06
4.70505e-06
4.70507e-06
4.70508e-06
4.70507e-06
4.70505e-06
4.70504e-06
4.70504e-06
4.70572e-06
4.70558e-06
4.7055e-06
4.70544e-06
4.70537e-06
4.7053e-06
4.70526e-06
4.70523e-06
4.70519e-06
4.70514e-06
4.70507e-06
4.70503e-06
4.70502e-06
4.70502e-06
4.70503e-06
4.70503e-06
4.70503e-06
4.70502e-06
4.70502e-06
4.70501e-06
4.7057e-06
4.70555e-06
4.70547e-06
4.7054e-06
4.70533e-06
4.70526e-06
4.70521e-06
4.70517e-06
4.70514e-06
4.7051e-06
4.70504e-06
4.705e-06
4.70499e-06
4.70499e-06
4.70501e-06
4.70501e-06
4.70501e-06
4.705e-06
4.70499e-06
4.70499e-06
4.70568e-06
4.70553e-06
4.70545e-06
4.70538e-06
4.70529e-06
4.70522e-06
4.70516e-06
4.70513e-06
4.70509e-06
4.70506e-06
4.70502e-06
4.70499e-06
4.70498e-06
4.70498e-06
4.70499e-06
4.70499e-06
4.70499e-06
4.70498e-06
4.70498e-06
4.70497e-06
4.70567e-06
4.70551e-06
4.70543e-06
4.70535e-06
4.70527e-06
4.70518e-06
4.70513e-06
4.70509e-06
4.70506e-06
4.70504e-06
4.705e-06
4.70498e-06
4.70496e-06
4.70496e-06
4.70497e-06
4.70497e-06
4.70497e-06
4.70497e-06
4.70496e-06
4.70496e-06
4.70565e-06
4.7055e-06
4.70541e-06
4.70533e-06
4.70524e-06
4.70516e-06
4.7051e-06
4.70506e-06
4.70503e-06
4.70501e-06
4.70498e-06
4.70496e-06
4.70495e-06
4.70495e-06
4.70495e-06
4.70495e-06
4.70495e-06
4.70495e-06
4.70494e-06
4.70494e-06
4.70564e-06
4.70548e-06
4.7054e-06
4.70532e-06
4.70522e-06
4.70513e-06
4.70507e-06
4.70503e-06
4.70501e-06
4.70498e-06
4.70496e-06
4.70495e-06
4.70494e-06
4.70494e-06
4.70494e-06
4.70494e-06
4.70494e-06
4.70493e-06
4.70493e-06
4.70493e-06
4.70562e-06
4.70547e-06
4.70538e-06
4.7053e-06
4.7052e-06
4.70511e-06
4.70505e-06
4.70501e-06
4.70498e-06
4.70496e-06
4.70495e-06
4.70493e-06
4.70492e-06
4.70492e-06
4.70492e-06
4.70492e-06
4.70492e-06
4.70492e-06
4.70491e-06
4.70492e-06
4.70561e-06
4.70546e-06
4.70537e-06
4.70529e-06
4.70519e-06
4.70509e-06
4.70503e-06
4.70499e-06
4.70496e-06
4.70494e-06
4.70493e-06
4.70492e-06
4.70491e-06
4.7049e-06
4.7049e-06
4.7049e-06
4.7049e-06
4.7049e-06
4.7049e-06
4.7049e-06
4.7056e-06
4.70545e-06
4.70536e-06
4.70527e-06
4.70517e-06
4.70508e-06
4.70501e-06
4.70497e-06
4.70494e-06
4.70493e-06
4.70491e-06
4.7049e-06
4.70489e-06
4.70489e-06
4.70489e-06
4.70489e-06
4.70489e-06
4.70489e-06
4.70489e-06
4.70489e-06
4.70559e-06
4.70544e-06
4.70534e-06
4.70526e-06
4.70516e-06
4.70506e-06
4.70499e-06
4.70495e-06
4.70493e-06
4.70491e-06
4.7049e-06
4.70489e-06
4.70488e-06
4.70487e-06
4.70487e-06
4.70487e-06
4.70487e-06
4.70487e-06
4.70487e-06
4.70487e-06
4.70558e-06
4.70543e-06
4.70534e-06
4.70525e-06
4.70515e-06
4.70505e-06
4.70498e-06
4.70494e-06
4.70492e-06
4.7049e-06
4.70489e-06
4.70487e-06
4.70487e-06
4.70486e-06
4.70486e-06
4.70485e-06
4.70485e-06
4.70485e-06
4.70486e-06
4.70487e-06
4.70557e-06
4.70541e-06
4.70532e-06
4.70524e-06
4.70513e-06
4.70503e-06
4.70497e-06
4.70492e-06
4.7049e-06
4.70488e-06
4.70487e-06
4.70486e-06
4.70485e-06
4.70484e-06
4.70483e-06
4.70483e-06
4.70483e-06
4.70483e-06
4.70484e-06
4.70485e-06
4.70556e-06
4.70541e-06
4.70532e-06
4.70523e-06
4.70513e-06
4.70503e-06
4.70496e-06
4.70492e-06
4.70489e-06
4.70488e-06
4.70486e-06
4.70485e-06
4.70484e-06
4.70483e-06
4.70482e-06
4.70482e-06
4.70482e-06
4.70482e-06
4.70483e-06
4.70484e-06
4.70555e-06
4.7054e-06
4.7053e-06
4.70522e-06
4.70511e-06
4.70501e-06
4.70494e-06
4.7049e-06
4.70488e-06
4.70486e-06
4.70485e-06
4.70483e-06
4.70482e-06
4.70481e-06
4.7048e-06
4.7048e-06
4.7048e-06
4.7048e-06
4.70481e-06
4.70482e-06
4.70555e-06
4.7054e-06
4.70531e-06
4.70522e-06
4.70511e-06
4.70501e-06
4.70494e-06
4.7049e-06
4.70488e-06
4.70486e-06
4.70485e-06
4.70483e-06
4.70482e-06
4.70481e-06
4.70479e-06
4.70479e-06
4.70479e-06
4.70479e-06
4.7048e-06
4.70482e-06
4.70554e-06
4.70539e-06
4.70529e-06
4.7052e-06
4.70509e-06
4.70499e-06
4.70493e-06
4.70488e-06
4.70486e-06
4.70485e-06
4.70483e-06
4.70481e-06
4.7048e-06
4.70479e-06
4.70477e-06
4.70476e-06
4.70476e-06
4.70476e-06
4.70478e-06
4.7048e-06
4.70555e-06
4.7054e-06
4.7053e-06
4.70521e-06
4.7051e-06
4.705e-06
4.70493e-06
4.70489e-06
4.70487e-06
4.70485e-06
4.70484e-06
4.70482e-06
4.7048e-06
4.70478e-06
4.70477e-06
4.70476e-06
4.70475e-06
4.70476e-06
4.70478e-06
4.70481e-06
4.70553e-06
4.70539e-06
4.70529e-06
4.70519e-06
4.70508e-06
4.70498e-06
4.70492e-06
4.70488e-06
4.70486e-06
4.70484e-06
4.70483e-06
4.7048e-06
4.70478e-06
4.70477e-06
4.70475e-06
4.70473e-06
4.70472e-06
4.70473e-06
4.70475e-06
4.70479e-06
4.70556e-06
4.70541e-06
4.70531e-06
4.70522e-06
4.70511e-06
4.70501e-06
4.70494e-06
4.7049e-06
4.70489e-06
4.70487e-06
4.70485e-06
4.70482e-06
4.7048e-06
4.70478e-06
4.70476e-06
4.70474e-06
4.70473e-06
4.70473e-06
4.70476e-06
4.7048e-06
4.70774e-06
4.7079e-06
4.70745e-06
4.70731e-06
4.70765e-06
4.7072e-06
4.70707e-06
4.70759e-06
4.70714e-06
4.70764e-06
4.7071e-06
4.70765e-06
4.70708e-06
4.70761e-06
4.70771e-06
4.70699e-06
4.70741e-06
4.70692e-06
4.70686e-06
4.70736e-06
6.23958e-06
6.40543e-06
6.18286e-06
5.7016e-06
5.18513e-06
4.80736e-06
4.62173e-06
4.59548e-06
4.66149e-06
4.7392e-06
4.75217e-06
4.65925e-06
4.4742e-06
4.25548e-06
4.07993e-06
4.02199e-06
4.1474e-06
4.48294e-06
4.99176e-06
5.56227e-06
3.32489e-06
3.55939e-06
3.82882e-06
4.12416e-06
4.41534e-06
4.67241e-06
4.87433e-06
5.01332e-06
5.05704e-06
4.89029e-06
4.44362e-06
3.85497e-06
3.33509e-06
2.97921e-06
2.77413e-06
2.6818e-06
2.67507e-06
2.73863e-06
2.86639e-06
3.04927e-06
3.85128e-06
4.15799e-06
4.4427e-06
4.67316e-06
4.83479e-06
4.9304e-06
4.97947e-06
4.9964e-06
4.80997e-06
3.9591e-06
2.8266e-06
2.10686e-06
1.867e-06
1.92452e-06
2.13737e-06
2.41991e-06
2.71224e-06
2.99084e-06
3.25212e-06
3.52049e-06
4.30137e-06
4.55378e-06
4.7158e-06
4.80639e-06
4.84863e-06
4.86614e-06
4.87566e-06
4.86435e-06
4.22993e-06
2.49887e-06
1.46816e-06
1.27559e-06
1.46485e-06
1.7608e-06
2.07505e-06
2.3747e-06
2.68718e-06
3.06964e-06
3.50893e-06
3.92995e-06
4.50887e-06
4.70629e-06
4.77977e-06
4.80243e-06
4.80875e-06
4.8118e-06
4.81666e-06
4.77369e-06
3.4715e-06
1.55988e-06
1.08788e-06
1.36242e-06
1.90758e-06
2.4477e-06
2.78997e-06
2.8652e-06
2.87547e-06
3.08634e-06
3.56092e-06
4.09775e-06
4.63925e-06
4.74982e-06
4.77166e-06
4.7717e-06
4.77064e-06
4.77211e-06
4.777e-06
4.70807e-06
3.02034e-06
1.28591e-06
1.14861e-06
1.6927e-06
2.39804e-06
2.92199e-06
3.08078e-06
2.97642e-06
2.93007e-06
3.20862e-06
3.77361e-06
4.31294e-06
4.64092e-06
4.73326e-06
4.74771e-06
4.74751e-06
4.74805e-06
4.75062e-06
4.75564e-06
4.67609e-06
2.9723e-06
1.29126e-06
1.18808e-06
1.74453e-06
2.4271e-06
2.84044e-06
2.868e-06
2.71256e-06
2.72155e-06
3.11026e-06
3.77003e-06
4.3387e-06
4.70373e-06
4.73686e-06
4.73633e-06
4.73383e-06
4.73403e-06
4.73641e-06
4.74127e-06
4.73222e-06
3.95189e-06
2.01423e-06
1.38734e-06
1.48918e-06
1.97134e-06
2.42242e-06
2.58856e-06
2.62832e-06
2.86879e-06
3.44327e-06
4.11222e-06
4.53677e-06
4.72537e-06
4.72812e-06
4.72538e-06
4.7246e-06
4.72561e-06
4.72802e-06
4.73196e-06
4.73887e-06
4.71537e-06
3.5982e-06
2.39699e-06
1.26229e-06
1.20312e-06
1.64292e-06
2.08536e-06
2.56667e-06
3.24461e-06
3.989e-06
4.48333e-06
4.67618e-06
4.72119e-06
4.72032e-06
4.7194e-06
4.71949e-06
4.72037e-06
4.72224e-06
4.72517e-06
4.7312e-06
4.73416e-06
3.66746e-06
2.53884e-06
1.53292e-06
1.17772e-06
1.51283e-06
2.19884e-06
3.08104e-06
3.92307e-06
4.44891e-06
4.65735e-06
4.71147e-06
4.71586e-06
4.71611e-06
4.71616e-06
4.71656e-06
4.7173e-06
4.71874e-06
4.72086e-06
4.72571e-06
4.72692e-06
3.5563e-06
2.37291e-06
1.65645e-06
1.5158e-06
2.02504e-06
2.92987e-06
3.81169e-06
4.37031e-06
4.61367e-06
4.69191e-06
4.71138e-06
4.71385e-06
4.71441e-06
4.71456e-06
4.71484e-06
4.71532e-06
4.71629e-06
4.71786e-06
4.72158e-06
4.72254e-06
3.46204e-06
2.3377e-06
1.77306e-06
1.85906e-06
2.56266e-06
3.46601e-06
4.14754e-06
4.50544e-06
4.64939e-06
4.69675e-06
4.71001e-06
4.71287e-06
4.71342e-06
4.71358e-06
4.71381e-06
4.71414e-06
4.71476e-06
4.71585e-06
4.71839e-06
4.71858e-06
3.40461e-06
2.25493e-06
1.70616e-06
1.93599e-06
2.75503e-06
3.64051e-06
4.24124e-06
4.54005e-06
4.65858e-06
4.69802e-06
4.70937e-06
4.71239e-06
4.7129e-06
4.71303e-06
4.71317e-06
4.71336e-06
4.71373e-06
4.71445e-06
4.7161e-06
4.71798e-06
3.40081e-06
2.32868e-06
1.83083e-06
2.06831e-06
2.86313e-06
3.70623e-06
4.27198e-06
4.55161e-06
4.662e-06
4.69858e-06
4.7091e-06
4.71217e-06
4.7126e-06
4.7127e-06
4.71278e-06
4.7129e-06
4.7131e-06
4.71356e-06
4.71458e-06
4.71633e-06
3.36422e-06
2.21842e-06
1.78031e-06
2.13523e-06
2.9721e-06
3.79031e-06
4.31674e-06
4.57012e-06
4.66821e-06
4.7002e-06
4.70928e-06
4.71228e-06
4.71247e-06
4.7125e-06
4.71254e-06
4.71259e-06
4.71267e-06
4.7128e-06
4.71312e-06
4.71326e-06
3.5838e-06
2.30717e-06
1.94231e-06
2.43393e-06
3.2923e-06
4.0191e-06
4.43564e-06
4.61868e-06
4.68461e-06
4.70488e-06
4.71036e-06
4.71249e-06
4.71242e-06
4.71239e-06
4.71239e-06
4.71241e-06
4.71245e-06
4.71252e-06
4.71266e-06
4.71246e-06
4.57948e-06
4.51172e-06
4.55528e-06
4.62122e-06
4.65975e-06
4.67829e-06
4.69485e-06
4.70523e-06
4.70981e-06
4.71137e-06
4.71181e-06
4.71245e-06
4.71234e-06
4.7123e-06
4.71229e-06
4.71228e-06
4.71228e-06
4.71229e-06
4.71234e-06
4.71246e-06
4.70906e-06
4.7077e-06
4.70891e-06
4.71047e-06
4.71117e-06
4.71134e-06
4.71155e-06
4.71174e-06
4.71183e-06
4.71185e-06
4.71186e-06
4.7124e-06
4.71229e-06
4.71224e-06
4.71222e-06
4.71219e-06
4.71218e-06
4.71217e-06
4.71216e-06
4.71213e-06
4.71205e-06
4.71191e-06
4.71188e-06
4.71191e-06
4.71191e-06
4.7119e-06
4.71189e-06
4.71187e-06
4.71185e-06
4.71183e-06
4.71183e-06
4.71236e-06
4.71225e-06
4.7122e-06
4.71217e-06
4.71213e-06
4.7121e-06
4.71207e-06
4.71206e-06
4.71205e-06
4.71199e-06
4.71188e-06
4.71181e-06
4.71181e-06
4.71183e-06
4.71185e-06
4.71184e-06
4.71183e-06
4.71181e-06
4.7118e-06
4.71179e-06
4.71234e-06
4.71223e-06
4.71217e-06
4.71213e-06
4.71208e-06
4.71204e-06
4.71201e-06
4.71198e-06
4.71195e-06
4.71191e-06
4.71184e-06
4.7118e-06
4.7118e-06
4.7118e-06
4.7118e-06
4.7118e-06
4.7118e-06
4.71178e-06
4.71177e-06
4.71177e-06
4.71232e-06
4.7122e-06
4.71214e-06
4.71209e-06
4.71204e-06
4.71199e-06
4.71195e-06
4.71193e-06
4.71191e-06
4.71187e-06
4.71182e-06
4.71178e-06
4.71177e-06
4.71177e-06
4.71178e-06
4.71178e-06
4.71177e-06
4.71176e-06
4.71176e-06
4.71175e-06
4.7123e-06
4.71218e-06
4.71212e-06
4.71207e-06
4.712e-06
4.71195e-06
4.71191e-06
4.71188e-06
4.71186e-06
4.71183e-06
4.71179e-06
4.71177e-06
4.71176e-06
4.71176e-06
4.71176e-06
4.71176e-06
4.71176e-06
4.71175e-06
4.71174e-06
4.71174e-06
4.71229e-06
4.71217e-06
4.7121e-06
4.71204e-06
4.71198e-06
4.71192e-06
4.71187e-06
4.71185e-06
4.71183e-06
4.7118e-06
4.71177e-06
4.71175e-06
4.71174e-06
4.71174e-06
4.71174e-06
4.71174e-06
4.71174e-06
4.71173e-06
4.71172e-06
4.71172e-06
4.71227e-06
4.71215e-06
4.71208e-06
4.71202e-06
4.71195e-06
4.71189e-06
4.71184e-06
4.71181e-06
4.71179e-06
4.71177e-06
4.71175e-06
4.71173e-06
4.71173e-06
4.71172e-06
4.71173e-06
4.71172e-06
4.71172e-06
4.71171e-06
4.71171e-06
4.71171e-06
4.71226e-06
4.71213e-06
4.71206e-06
4.712e-06
4.71193e-06
4.71186e-06
4.71181e-06
4.71179e-06
4.71177e-06
4.71175e-06
4.71173e-06
4.71172e-06
4.71171e-06
4.71171e-06
4.71171e-06
4.71171e-06
4.7117e-06
4.7117e-06
4.71169e-06
4.71169e-06
4.71224e-06
4.71212e-06
4.71205e-06
4.71198e-06
4.71191e-06
4.71184e-06
4.71179e-06
4.71176e-06
4.71174e-06
4.71173e-06
4.71171e-06
4.7117e-06
4.71169e-06
4.71169e-06
4.71169e-06
4.71169e-06
4.71169e-06
4.71168e-06
4.71168e-06
4.71168e-06
4.71223e-06
4.71211e-06
4.71203e-06
4.71197e-06
4.71189e-06
4.71182e-06
4.71177e-06
4.71174e-06
4.71172e-06
4.7117e-06
4.71169e-06
4.71168e-06
4.71168e-06
4.71167e-06
4.71167e-06
4.71167e-06
4.71167e-06
4.71167e-06
4.71167e-06
4.71167e-06
4.71222e-06
4.7121e-06
4.71202e-06
4.71195e-06
4.71188e-06
4.7118e-06
4.71175e-06
4.71172e-06
4.7117e-06
4.71169e-06
4.71168e-06
4.71167e-06
4.71166e-06
4.71166e-06
4.71166e-06
4.71166e-06
4.71165e-06
4.71165e-06
4.71165e-06
4.71165e-06
4.71221e-06
4.71208e-06
4.71201e-06
4.71194e-06
4.71186e-06
4.71179e-06
4.71173e-06
4.7117e-06
4.71168e-06
4.71167e-06
4.71166e-06
4.71165e-06
4.71164e-06
4.71164e-06
4.71164e-06
4.71164e-06
4.71164e-06
4.71164e-06
4.71164e-06
4.71164e-06
4.7122e-06
4.71207e-06
4.712e-06
4.71193e-06
4.71185e-06
4.71177e-06
4.71172e-06
4.71168e-06
4.71167e-06
4.71165e-06
4.71164e-06
4.71164e-06
4.71163e-06
4.71163e-06
4.71162e-06
4.71162e-06
4.71162e-06
4.71162e-06
4.71162e-06
4.71163e-06
4.71218e-06
4.71206e-06
4.71198e-06
4.71191e-06
4.71183e-06
4.71176e-06
4.7117e-06
4.71167e-06
4.71165e-06
4.71164e-06
4.71163e-06
4.71162e-06
4.71161e-06
4.71161e-06
4.7116e-06
4.7116e-06
4.7116e-06
4.7116e-06
4.71161e-06
4.71161e-06
4.71218e-06
4.71205e-06
4.71198e-06
4.71191e-06
4.71182e-06
4.71175e-06
4.71169e-06
4.71166e-06
4.71164e-06
4.71163e-06
4.71162e-06
4.71161e-06
4.7116e-06
4.7116e-06
4.71159e-06
4.71159e-06
4.71159e-06
4.71159e-06
4.7116e-06
4.7116e-06
4.71216e-06
4.71204e-06
4.71196e-06
4.71189e-06
4.71181e-06
4.71173e-06
4.71168e-06
4.71164e-06
4.71163e-06
4.71161e-06
4.7116e-06
4.71159e-06
4.71158e-06
4.71158e-06
4.71157e-06
4.71157e-06
4.71157e-06
4.71157e-06
4.71158e-06
4.71159e-06
4.71216e-06
4.71204e-06
4.71196e-06
4.71189e-06
4.71181e-06
4.71173e-06
4.71167e-06
4.71164e-06
4.71162e-06
4.71161e-06
4.7116e-06
4.71159e-06
4.71158e-06
4.71157e-06
4.71156e-06
4.71156e-06
4.71156e-06
4.71156e-06
4.71157e-06
4.71158e-06
4.71215e-06
4.71203e-06
4.71195e-06
4.71188e-06
4.71179e-06
4.71171e-06
4.71166e-06
4.71162e-06
4.71161e-06
4.7116e-06
4.71159e-06
4.71157e-06
4.71156e-06
4.71155e-06
4.71154e-06
4.71154e-06
4.71154e-06
4.71154e-06
4.71155e-06
4.71157e-06
4.71216e-06
4.71204e-06
4.71196e-06
4.71188e-06
4.7118e-06
4.71172e-06
4.71166e-06
4.71163e-06
4.71161e-06
4.7116e-06
4.71159e-06
4.71157e-06
4.71156e-06
4.71155e-06
4.71154e-06
4.71153e-06
4.71153e-06
4.71153e-06
4.71155e-06
4.71157e-06
4.71214e-06
4.71202e-06
4.71194e-06
4.71187e-06
4.71178e-06
4.7117e-06
4.71165e-06
4.71162e-06
4.7116e-06
4.71159e-06
4.71158e-06
4.71156e-06
4.71155e-06
4.71154e-06
4.71152e-06
4.71151e-06
4.7115e-06
4.71151e-06
4.71153e-06
4.71155e-06
4.71216e-06
4.71205e-06
4.71196e-06
4.71189e-06
4.7118e-06
4.71172e-06
4.71167e-06
4.71164e-06
4.71163e-06
4.71161e-06
4.71159e-06
4.71157e-06
4.71156e-06
4.71155e-06
4.71153e-06
4.71151e-06
4.71151e-06
4.71151e-06
4.71154e-06
4.71157e-06
4.71425e-06
4.7144e-06
4.71401e-06
4.71391e-06
4.71422e-06
4.71382e-06
4.71372e-06
4.7142e-06
4.71378e-06
4.71425e-06
4.71375e-06
4.71426e-06
4.71374e-06
4.71423e-06
4.71431e-06
4.71365e-06
4.71404e-06
4.7136e-06
4.71356e-06
4.71399e-06
6.02154e-06
6.17293e-06
5.95251e-06
5.50313e-06
5.03936e-06
4.71652e-06
4.57411e-06
4.57579e-06
4.65424e-06
4.72792e-06
4.71972e-06
4.59198e-06
4.36701e-06
4.11333e-06
3.91496e-06
3.84815e-06
3.97484e-06
4.31345e-06
4.81749e-06
5.37051e-06
3.25817e-06
3.5343e-06
3.83372e-06
4.14487e-06
4.43991e-06
4.69261e-06
4.88626e-06
5.01615e-06
5.04781e-06
4.85638e-06
4.37139e-06
3.74486e-06
3.19754e-06
2.8241e-06
2.60842e-06
2.51051e-06
2.50424e-06
2.57778e-06
2.72806e-06
2.94503e-06
3.8247e-06
4.16325e-06
4.45947e-06
4.68905e-06
4.84445e-06
4.93328e-06
4.97798e-06
4.99253e-06
4.79751e-06
3.90688e-06
2.73376e-06
1.98824e-06