/*--------------------------------*- C++ -*----------------------------------*\
| =========                 |                                                 |
| \\      /  F ield         | OpenFOAM: The Open Source CFD Toolbox           |
|  \\    /   O peration     | Version:  2.4.0                                 |
|   \\  /    A nd           | Web:      www.OpenFOAM.org                      |
|    \\/     M anipulation  |                                                 |
\*---------------------------------------------------------------------------*/
FoamFile
{
    version     2.0;
    format      ascii;
    class       volScalarField;
    location    "50";
    object      epsilon;
}
// * * * * * * * * * * * * * * * * * * * * * * * * * * * * * * * * * * * * * //

dimensions      [0 2 -3 0 0 0 0];

internalField   nonuniform List<scalar> 
283312
(
3.0546e-05
2.39768e-05
2.00471e-05
1.82087e-05
1.82743e-05
2.00706e-05
2.32457e-05
2.72876e-05
3.16716e-05
3.59624e-05
3.98497e-05
4.31349e-05
4.56911e-05
4.74191e-05
4.81e-05
4.75132e-05
4.55032e-05
4.20203e-05
3.72017e-05
3.1543e-05
8.55705e-06
8.85772e-06
1.05303e-05
1.30688e-05
1.6017e-05
1.88603e-05
2.11822e-05
2.28018e-05
2.3779e-05
2.41944e-05
2.40456e-05
2.32959e-05
2.19408e-05
2.00222e-05
1.78129e-05
1.54198e-05
1.29692e-05
1.06379e-05
8.66602e-06
7.32226e-06
6.58546e-06
8.95874e-06
1.14925e-05
1.35094e-05
1.47611e-05
1.53639e-05
1.56226e-05
1.57209e-05
1.56717e-05
1.52166e-05
1.41456e-05
1.25125e-05
1.04993e-05
8.28242e-06
6.0864e-06
4.33565e-06
3.18963e-06
2.6908e-06
2.82883e-06
3.68001e-06
8.99278e-06
1.10074e-05
1.22941e-05
1.27976e-05
1.28275e-05
1.27407e-05
1.26659e-05
1.26298e-05
1.23814e-05
1.13802e-05
9.64999e-06
7.60687e-06
5.54446e-06
3.66775e-06
2.31434e-06
1.65616e-06
1.5767e-06
2.0653e-06
3.3043e-06
5.35967e-06
1.08936e-05
1.17032e-05
1.19562e-05
1.18658e-05
1.16998e-05
1.15899e-05
1.15139e-05
1.14666e-05
1.09902e-05
9.34787e-06
7.11613e-06
4.96965e-06
3.16153e-06
1.87946e-06
1.29456e-06
1.29513e-06
1.90011e-06
3.37739e-06
5.64217e-06
8.02108e-06
1.14604e-05
1.15189e-05
1.14248e-05
1.12788e-05
1.11853e-05
1.11275e-05
1.10729e-05
1.10159e-05
1.02367e-05
7.89601e-06
5.34744e-06
3.27044e-06
1.81961e-06
1.1452e-06
1.13501e-06
1.75134e-06
3.33364e-06
5.72947e-06
8.08159e-06
9.74394e-06
1.14438e-05
1.1279e-05
1.11622e-05
1.10832e-05
1.10565e-05
1.10212e-05
1.09658e-05
1.0891e-05
9.83409e-06
6.90413e-06
4.27185e-06
2.36607e-06
1.23778e-06
9.70222e-07
1.41969e-06
2.90327e-06
5.3832e-06
7.85131e-06
9.55053e-06
1.04284e-05
1.126e-05
1.10624e-05
1.09813e-05
1.09703e-05
1.0998e-05
1.09955e-05
1.09574e-05
1.08844e-05
9.60137e-06
6.19307e-06
3.57781e-06
1.8453e-06
1.04332e-06
1.13919e-06
2.23516e-06
4.60625e-06
7.26543e-06
9.17655e-06
1.0177e-05
1.05822e-05
1.11205e-05
1.09421e-05
1.08947e-05
1.09248e-05
1.09854e-05
1.10097e-05
1.0991e-05
1.09217e-05
9.24693e-06
5.45154e-06
3.00378e-06
1.5112e-06
1.03559e-06
1.55408e-06
3.45197e-06
6.23811e-06
8.53203e-06
9.82849e-06
1.03876e-05
1.05851e-05
1.09871e-05
1.0828e-05
1.08017e-05
1.08519e-05
1.09356e-05
1.0995e-05
1.101e-05
1.0959e-05
8.91514e-06
4.86853e-06
2.63089e-06
1.3773e-06
1.2192e-06
2.28089e-06
4.7942e-06
7.48982e-06
9.26107e-06
1.01044e-05
1.04225e-05
1.05294e-05
1.08801e-05
1.07362e-05
1.07216e-05
1.07774e-05
1.08615e-05
1.09495e-05
1.10048e-05
1.09866e-05
8.8663e-06
4.63322e-06
2.44251e-06
1.33377e-06
1.54666e-06
3.2409e-06
6.03301e-06
8.37546e-06
9.67121e-06
1.02156e-05
1.0402e-05
1.0467e-05
1.07709e-05
1.06366e-05
1.06272e-05
1.068e-05
1.0754e-05
1.08566e-05
1.095e-05
1.09754e-05
8.97806e-06
4.54018e-06
2.3989e-06
1.48116e-06
2.1694e-06
4.40201e-06
7.11611e-06
8.99655e-06
9.90281e-06
1.0246e-05
1.03509e-05
1.03907e-05
1.06668e-05
1.05394e-05
1.05312e-05
1.05764e-05
1.06323e-05
1.07272e-05
1.08362e-05
1.09085e-05
8.85252e-06
4.32802e-06
2.24972e-06
1.35059e-06
2.44158e-06
5.02924e-06
7.66356e-06
9.27531e-06
9.97563e-06
1.02183e-05
1.02816e-05
1.03087e-05
1.05612e-05
1.04375e-05
1.04279e-05
1.04629e-05
1.04983e-05
1.05764e-05
1.06706e-05
1.07717e-05
8.72314e-06
4.31418e-06
2.72881e-06
1.83334e-06
3.26805e-06
5.95346e-06
8.28254e-06
9.55188e-06
1.00389e-05
1.01852e-05
1.02077e-05
1.02217e-05
1.04561e-05
1.03352e-05
1.03231e-05
1.0347e-05
1.03607e-05
1.04176e-05
1.04789e-05
1.0564e-05
8.49667e-06
3.82112e-06
1.82137e-06
1.50102e-06
3.46751e-06
6.38964e-06
8.61664e-06
9.69699e-06
1.00505e-05
1.01337e-05
1.01265e-05
1.01308e-05
1.03508e-05
1.02315e-05
1.02162e-05
1.02293e-05
1.02232e-05
1.02611e-05
1.02874e-05
1.03422e-05
8.36961e-06
3.09393e-06
1.13205e-06
1.3599e-06
3.17663e-06
6.15372e-06
8.54199e-06
9.66899e-06
1.00026e-05
1.00643e-05
1.00392e-05
1.00367e-05
1.02454e-05
1.01282e-05
1.01092e-05
1.01121e-05
1.00879e-05
1.01092e-05
1.01026e-05
1.01357e-05
9.61051e-06
5.80547e-06
3.12834e-06
3.91437e-06
6.40718e-06
8.62198e-06
9.6787e-06
9.98754e-06
1.00111e-05
9.99219e-06
9.94475e-06
9.93867e-06
1.01414e-05
1.00261e-05
1.00031e-05
9.99633e-06
9.95691e-06
9.96758e-06
9.93888e-06
9.97426e-06
9.82955e-06
9.11217e-06
8.07306e-06
8.44421e-06
9.20165e-06
9.71551e-06
9.90243e-06
9.94287e-06
9.91929e-06
9.90092e-06
9.84738e-06
9.84014e-06
1.00388e-05
9.92625e-06
9.89851e-06
9.88233e-06
9.82952e-06
9.83258e-06
9.78705e-06
9.83426e-06
9.77193e-06
9.78334e-06
9.69347e-06
9.87687e-06
9.96823e-06
9.98663e-06
9.94222e-06
9.90088e-06
9.84862e-06
9.8198e-06
9.75189e-06
9.74193e-06
9.93761e-06
9.82827e-06
9.79561e-06
9.7701e-06
9.70566e-06
9.70396e-06
9.64489e-06
9.70441e-06
9.66413e-06
9.76886e-06
9.80947e-06
9.95095e-06
9.95493e-06
9.93418e-06
9.88029e-06
9.83392e-06
9.77288e-06
9.73756e-06
9.65502e-06
9.64384e-06
9.8378e-06
9.73174e-06
9.69455e-06
9.65943e-06
9.58475e-06
9.58e-06
9.50815e-06
9.5801e-06
9.54799e-06
9.67576e-06
9.71644e-06
9.84806e-06
9.84641e-06
9.83935e-06
9.79925e-06
9.75704e-06
9.69201e-06
9.6532e-06
9.55661e-06
9.54609e-06
9.73966e-06
9.63656e-06
9.59548e-06
9.55023e-06
9.46653e-06
9.46003e-06
9.37544e-06
9.45963e-06
9.42904e-06
9.57216e-06
9.59983e-06
9.73043e-06
9.73251e-06
9.74283e-06
9.71778e-06
9.67943e-06
9.61079e-06
9.56947e-06
9.45812e-06
9.44933e-06
9.64271e-06
9.54291e-06
9.4988e-06
9.4425e-06
9.35079e-06
9.34369e-06
9.24581e-06
9.34243e-06
9.31021e-06
9.47015e-06
9.48737e-06
9.62226e-06
9.62673e-06
9.64989e-06
9.63792e-06
9.60247e-06
9.53042e-06
9.48736e-06
9.35974e-06
9.3537e-06
9.54565e-06
9.45022e-06
9.40427e-06
9.33573e-06
9.23721e-06
9.23009e-06
9.11759e-06
9.22715e-06
9.19121e-06
9.36847e-06
9.3762e-06
9.51858e-06
9.52492e-06
9.55942e-06
9.56046e-06
9.52683e-06
9.45122e-06
9.40664e-06
9.26061e-06
9.25806e-06
9.44903e-06
9.35944e-06
9.31278e-06
9.2302e-06
9.12605e-06
9.11957e-06
8.99126e-06
9.11448e-06
9.07362e-06
9.26961e-06
9.26898e-06
9.42136e-06
9.42842e-06
9.472e-06
9.4858e-06
9.45255e-06
9.37389e-06
9.32773e-06
9.16084e-06
9.16232e-06
9.35145e-06
9.26952e-06
9.22344e-06
9.12481e-06
9.01638e-06
9.01088e-06
8.86527e-06
9.00288e-06
8.95616e-06
9.17227e-06
9.16328e-06
9.32734e-06
9.33409e-06
9.38567e-06
9.41281e-06
9.37818e-06
9.297e-06
9.24867e-06
9.05874e-06
9.06511e-06
9.25425e-06
9.1821e-06
9.1379e-06
9.02056e-06
8.90921e-06
8.90535e-06
8.7405e-06
8.89379e-06
8.84112e-06
9.07867e-06
9.06097e-06
9.2378e-06
9.24334e-06
9.30247e-06
9.34394e-06
9.30582e-06
9.22221e-06
9.17095e-06
8.95528e-06
8.96764e-06
9.15567e-06
9.09576e-06
9.05435e-06
8.91508e-06
8.803e-06
8.80127e-06
8.61512e-06
8.78492e-06
8.72609e-06
8.98574e-06
8.95861e-06
9.14888e-06
9.15217e-06
9.21855e-06
9.2758e-06
9.23218e-06
9.14675e-06
9.09178e-06
8.84773e-06
8.8679e-06
9.05785e-06
9.01296e-06
8.97548e-06
8.81043e-06
8.69975e-06
8.70033e-06
8.4904e-06
8.6783e-06
8.61351e-06
8.89662e-06
8.8593e-06
9.06381e-06
9.06352e-06
9.13735e-06
9.21262e-06
9.16107e-06
9.0742e-06
9.0145e-06
8.73859e-06
8.76836e-06
8.95645e-06
8.92952e-06
8.89678e-06
8.70206e-06
8.59542e-06
8.59884e-06
8.36292e-06
8.57017e-06
8.49975e-06
8.80582e-06
8.75711e-06
8.97552e-06
8.97039e-06
9.05251e-06
9.14788e-06
9.08588e-06
8.99822e-06
8.93294e-06
8.62268e-06
8.66397e-06
8.85756e-06
8.85242e-06
8.82477e-06
8.59466e-06
8.49559e-06
8.50211e-06
8.23626e-06
8.46464e-06
8.38932e-06
8.71952e-06
8.658e-06
8.89105e-06
8.87951e-06
8.97096e-06
9.08972e-06
9.01434e-06
8.92701e-06
8.8546e-06
8.50547e-06
8.56127e-06
8.75071e-06
8.77073e-06
8.74869e-06
8.47887e-06
8.39119e-06
8.40092e-06
8.1029e-06
8.35332e-06
8.27431e-06
8.62753e-06
8.55182e-06
8.79837e-06
8.77867e-06
8.88068e-06
9.02508e-06
8.93294e-06
8.84664e-06
8.76611e-06
8.37584e-06
8.44876e-06
8.64814e-06
8.6983e-06
8.68173e-06
8.36527e-06
8.2941e-06
8.30689e-06
7.97132e-06
8.24666e-06
8.16468e-06
8.54254e-06
8.45035e-06
8.71157e-06
8.68105e-06
8.79591e-06
8.97078e-06
8.85764e-06
8.77379e-06
8.6825e-06
8.24555e-06
8.3394e-06
8.53045e-06
8.61399e-06
8.60338e-06
8.23657e-06
8.18672e-06
8.2032e-06
7.8283e-06
8.12788e-06
8.04485e-06
8.44427e-06
8.33447e-06
8.60764e-06
8.56462e-06
8.69467e-06
8.90224e-06
8.76428e-06
8.68328e-06
8.58035e-06
8.09595e-06
8.21313e-06
8.41912e-06
8.54327e-06
8.53628e-06
8.10981e-06
8.09098e-06
8.11008e-06
7.68792e-06
8.01623e-06
7.93263e-06
8.35722e-06
8.2259e-06
8.5136e-06
8.45267e-06
8.60115e-06
8.84677e-06
8.67654e-06
8.6017e-06
8.48295e-06
7.94421e-06
8.09176e-06
8.28113e-06
8.44624e-06
8.44524e-06
7.95967e-06
7.97417e-06
7.99805e-06
7.52973e-06
7.8825e-06
7.80082e-06
8.24413e-06
8.09188e-06
8.38919e-06
8.30974e-06
8.47921e-06
8.76478e-06
8.55895e-06
8.48817e-06
8.35487e-06
7.76478e-06
7.94228e-06
8.15407e-06
8.37244e-06
8.36977e-06
7.8109e-06
7.87682e-06
7.90103e-06
7.37456e-06
7.76156e-06
7.68074e-06
8.14861e-06
7.96778e-06
8.27996e-06
8.17233e-06
8.37082e-06
8.70133e-06
8.44506e-06
8.38548e-06
8.23081e-06
7.58101e-06
7.80202e-06
7.97916e-06
8.24273e-06
8.24452e-06
7.62283e-06
7.73237e-06
7.76153e-06
7.18702e-06
7.59671e-06
7.5217e-06
8.00088e-06
7.79627e-06
8.11332e-06
7.98017e-06
8.20722e-06
8.58705e-06
8.28119e-06
8.22415e-06
8.0535e-06
7.35673e-06
7.61395e-06
7.7506e-06
8.04346e-06
8.04724e-06
7.38239e-06
7.53244e-06
7.56053e-06
6.96034e-06
7.36444e-06
7.31431e-06
7.74975e-06
7.5429e-06
7.81946e-06
7.68545e-06
7.93897e-06
8.33951e-06
8.00754e-06
7.96386e-06
7.78868e-06
7.07823e-06
7.35664e-06
1.46825e-06
5.57659e-07
9.92738e-07
3.2726e-06
6.27897e-07
1.0935e-06
3.32196e-06
6.65997e-07
1.52917e-06
5.45817e-07
1.18464e-06
5.49165e-07
9.55555e-07
5.69603e-07
5.04871e-07
8.59241e-07
5.18472e-07
1.00082e-06
3.23267e-06
6.614e-07
2.46704e-05
1.8928e-05
1.57077e-05
1.43858e-05
1.47568e-05
1.66717e-05
1.98151e-05
2.37297e-05
2.79355e-05
3.20214e-05
3.56856e-05
3.87288e-05
4.1019e-05
4.24528e-05
4.28386e-05
4.19496e-05
3.96748e-05
3.6029e-05
3.12293e-05
2.58282e-05
6.58977e-06
7.0322e-06
8.68545e-06
1.11341e-05
1.39668e-05
1.67043e-05
1.89327e-05
2.04871e-05
2.14181e-05
2.17782e-05
2.1544e-05
2.06864e-05
1.92295e-05
1.72475e-05
1.49942e-05
1.26576e-05
1.03561e-05
8.25618e-06
6.56328e-06
5.48469e-06
5.64103e-06
7.91077e-06
1.0346e-05
1.23034e-05
1.3547e-05
1.41899e-05
1.44823e-05
1.45975e-05
1.45222e-05
1.39666e-05
1.27505e-05
1.10097e-05
8.98553e-06
6.86878e-06
4.86926e-06
3.34678e-06
2.40623e-06
2.0368e-06
2.20545e-06
3.00025e-06
8.30429e-06
1.029e-05
1.15826e-05
1.21445e-05
1.2266e-05
1.22568e-05
1.22138e-05
1.21725e-05
1.18475e-05
1.06532e-05
8.72262e-06
6.60899e-06
4.62915e-06
2.93951e-06
1.79267e-06
1.27499e-06
1.24341e-06
1.69628e-06
2.86647e-06
4.87025e-06
1.04853e-05
1.13329e-05
1.16656e-05
1.16848e-05
1.16195e-05
1.15578e-05
1.14885e-05
1.14154e-05
1.08187e-05
8.88811e-06
6.42613e-06
4.26014e-06
2.58789e-06
1.48652e-06
1.02366e-06
1.05199e-06
1.61479e-06
3.07116e-06
5.35844e-06
7.76083e-06
1.13251e-05
1.14567e-05
1.14686e-05
1.14361e-05
1.1421e-05
1.13904e-05
1.1328e-05
1.12372e-05
1.03011e-05
7.58578e-06
4.80908e-06
2.7673e-06
1.47325e-06
9.22318e-07
9.34986e-07
1.50889e-06
3.11024e-06
5.58702e-06
8.00945e-06
9.72496e-06
1.15366e-05
1.14483e-05
1.1437e-05
1.1462e-05
1.14949e-05
1.14779e-05
1.14128e-05
1.13066e-05
1.00728e-05
6.69778e-06
3.84634e-06
2e-06
1.0131e-06
8.06239e-07
1.22103e-06
2.72882e-06
5.33127e-06
7.90828e-06
9.68306e-06
1.06259e-05
1.1524e-05
1.13957e-05
1.14132e-05
1.14957e-05
1.15726e-05
1.15845e-05
1.15384e-05
1.14402e-05
9.97458e-06
6.0628e-06
3.23802e-06
1.57127e-06
8.7427e-07
9.73885e-07
2.06727e-06
4.58397e-06
7.3968e-06
9.41047e-06
1.04836e-05
1.09545e-05
1.15035e-05
1.13844e-05
1.14285e-05
1.15434e-05
1.16495e-05
1.16892e-05
1.16674e-05
1.15813e-05
9.69472e-06
5.36001e-06
2.72804e-06
1.29586e-06
8.83314e-07
1.38076e-06
3.39229e-06
6.38143e-06
8.82218e-06
1.02083e-05
1.08317e-05
1.10866e-05
1.1452e-05
1.13436e-05
1.14024e-05
1.15313e-05
1.16594e-05
1.1736e-05
1.17532e-05
1.16947e-05
9.41145e-06
4.82296e-06
2.42741e-06
1.20403e-06
1.06281e-06
2.14572e-06
4.86853e-06
7.77753e-06
9.67923e-06
1.05987e-05
1.097e-05
1.11236e-05
1.14e-05
1.12993e-05
1.13643e-05
1.14942e-05
1.16235e-05
1.17316e-05
1.17947e-05
1.17787e-05
9.42701e-06
4.67003e-06
2.32603e-06
1.19276e-06
1.38703e-06
3.182e-06
6.23411e-06
8.78324e-06
1.01919e-05
1.07979e-05
1.10251e-05
1.11262e-05
1.13271e-05
1.12298e-05
1.1295e-05
1.14185e-05
1.15381e-05
1.16637e-05
1.17698e-05
1.18059e-05
9.60714e-06
4.6712e-06
2.42205e-06
1.39017e-06
2.03618e-06
4.43874e-06
7.42642e-06
9.49857e-06
1.05011e-05
1.08928e-05
1.10275e-05
1.10944e-05
1.12461e-05
1.11504e-05
1.12126e-05
1.13252e-05
1.1427e-05
1.15477e-05
1.16744e-05
1.17648e-05
9.5126e-06
4.52103e-06
2.35701e-06
1.28142e-06
2.31956e-06
5.11502e-06
8.03995e-06
9.84204e-06
1.063e-05
1.09117e-05
1.09957e-05
1.10426e-05
1.11537e-05
1.10575e-05
1.11144e-05
1.12139e-05
1.12943e-05
1.13995e-05
1.15149e-05
1.16384e-05
9.40177e-06
4.57766e-06
3.0323e-06
1.86264e-06
3.21401e-06
6.1136e-06
8.72259e-06
1.01697e-05
1.07335e-05
1.09104e-05
1.09465e-05
1.09746e-05
1.1055e-05
1.0958e-05
1.10091e-05
1.10946e-05
1.11518e-05
1.1236e-05
1.13199e-05
1.14304e-05
9.17899e-06
4.09051e-06
2.00702e-06
1.45228e-06
3.39143e-06
6.57475e-06
9.0949e-06
1.03499e-05
1.07729e-05
1.08801e-05
1.08808e-05
1.08948e-05
1.09505e-05
1.08525e-05
1.08972e-05
1.09695e-05
1.10046e-05
1.10684e-05
1.11144e-05
1.11892e-05
9.03087e-06
3.09914e-06
9.84664e-07
1.1691e-06
2.94433e-06
6.24809e-06
8.99902e-06
1.03288e-05
1.07369e-05
1.08211e-05
1.08009e-05
1.08052e-05
1.08421e-05
1.07439e-05
1.07824e-05
1.08422e-05
1.08568e-05
1.09021e-05
1.09112e-05
1.09575e-05
1.04079e-05
6.12999e-06
3.02886e-06
3.76835e-06
6.5252e-06
9.07314e-06
1.03346e-05
1.07294e-05
1.07745e-05
1.07594e-05
1.07099e-05
1.07074e-05
1.0732e-05
1.06341e-05
1.06662e-05
1.07145e-05
1.07114e-05
1.0744e-05
1.07266e-05
1.07695e-05
1.06131e-05
9.80123e-06
8.66887e-06
9.05924e-06
9.89175e-06
1.04684e-05
1.06791e-05
1.07232e-05
1.06921e-05
1.06692e-05
1.06105e-05
1.06052e-05
1.06211e-05
1.05246e-05
1.05502e-05
1.05874e-05
1.05687e-05
1.05918e-05
1.05541e-05
1.06059e-05
1.05332e-05
1.05148e-05
1.04029e-05
1.06023e-05
1.0723e-05
1.07639e-05
1.07232e-05
1.06785e-05
1.0617e-05
1.05837e-05
1.05098e-05
1.05007e-05
1.05099e-05
1.04154e-05
1.04348e-05
1.04613e-05
1.0429e-05
1.04457e-05
1.03916e-05
1.04541e-05
1.0405e-05
1.04951e-05
1.05242e-05
1.06796e-05
1.07036e-05
1.06991e-05
1.06484e-05
1.06009e-05
1.05327e-05
1.04943e-05
1.04054e-05
1.03943e-05
1.03987e-05
1.03065e-05
1.03205e-05
1.03362e-05
1.02919e-05
1.03044e-05
1.02351e-05
1.03093e-05
1.02696e-05
1.039e-05
1.04245e-05
1.05693e-05
1.05838e-05
1.05911e-05
1.05549e-05
1.05136e-05
1.04427e-05
1.04017e-05
1.0298e-05
1.02868e-05
1.02882e-05
1.01982e-05
1.02077e-05
1.02124e-05
1.01574e-05
1.01671e-05
1.00831e-05
1.01692e-05
1.01321e-05
1.02733e-05
1.02987e-05
1.0442e-05
1.04576e-05
1.04808e-05
1.04606e-05
1.04249e-05
1.03516e-05
1.03088e-05
1.01893e-05
1.0179e-05
1.01781e-05
1.0091e-05
1.00971e-05
1.00899e-05
1.00255e-05
1.00338e-05
9.93455e-06
1.0033e-05
9.99507e-06
1.01569e-05
1.01746e-05
1.03225e-05
1.03393e-05
1.0375e-05
1.03688e-05
1.03373e-05
1.02611e-05
1.02171e-05
1.00802e-05
1.00717e-05
1.00672e-05
9.98429e-06
9.98857e-06
9.96828e-06
9.89572e-06
9.90347e-06
9.78771e-06
9.8992e-06
9.85803e-06
1.00403e-05
1.00506e-05
1.02066e-05
1.02246e-05
1.02715e-05
1.02793e-05
1.02507e-05
1.01715e-05
1.01263e-05
9.96954e-06
9.96337e-06
9.95647e-06
9.87945e-06
9.88323e-06
9.84815e-06
9.76871e-06
9.77663e-06
9.64319e-06
9.76848e-06
9.72257e-06
9.92615e-06
9.92964e-06
1.00966e-05
1.01153e-05
1.01716e-05
1.01932e-05
1.01659e-05
1.0084e-05
1.00372e-05
9.85803e-06
9.85467e-06
9.8444e-06
9.7753e-06
9.78013e-06
9.72824e-06
9.64329e-06
9.65188e-06
9.49913e-06
9.63897e-06
9.58723e-06
9.81332e-06
9.80973e-06
9.98947e-06
1.00081e-05
1.00728e-05
1.0109e-05
1.00811e-05
9.99689e-06
9.94791e-06
9.74376e-06
9.74408e-06
9.73278e-06
9.67396e-06
9.68142e-06
9.60994e-06
9.52088e-06
9.53093e-06
9.3568e-06
9.51249e-06
9.45467e-06
9.70449e-06
9.69324e-06
9.8871e-06
9.90499e-06
9.97792e-06
1.00298e-05
9.99905e-06
9.91248e-06
9.86051e-06
9.62825e-06
9.6333e-06
9.61961e-06
9.57377e-06
9.58505e-06
9.4906e-06
9.39969e-06
9.41179e-06
9.21401e-06
9.38644e-06
9.3221e-06
9.59637e-06
9.57653e-06
9.78539e-06
9.80159e-06
9.88257e-06
9.95178e-06
9.91617e-06
9.82774e-06
9.77192e-06
9.5085e-06
9.52005e-06
9.50761e-06
9.4778e-06
9.49437e-06
9.37292e-06
9.28227e-06
9.29673e-06
9.07248e-06
9.26322e-06
9.19247e-06
9.4927e-06
9.46346e-06
9.68836e-06
9.70153e-06
9.79088e-06
9.87994e-06
9.83697e-06
9.74702e-06
9.6863e-06
9.38777e-06
9.40744e-06
9.39183e-06
9.38142e-06
9.40441e-06
9.25166e-06
9.16395e-06
9.18149e-06
8.92825e-06
9.13864e-06
9.06176e-06
9.38776e-06
9.3478e-06
9.58859e-06
9.59743e-06
9.69612e-06
9.80733e-06
9.75434e-06
9.66348e-06
9.59693e-06
9.26013e-06
9.28977e-06
9.27936e-06
9.29254e-06
9.32269e-06
9.13257e-06
9.05141e-06
9.07242e-06
8.78579e-06
9.01757e-06
8.93515e-06
9.28838e-06
9.23621e-06
9.49384e-06
9.49671e-06
9.60587e-06
9.74294e-06
9.67695e-06
9.58633e-06
9.51234e-06
9.13209e-06
9.17457e-06
9.15883e-06
9.1995e-06
9.23759e-06
9.00527e-06
8.93458e-06
8.9593e-06
8.63656e-06
8.89089e-06
8.8042e-06
9.18406e-06
9.11819e-06
9.39179e-06
9.38673e-06
9.50773e-06
9.67332e-06
9.59077e-06
9.50096e-06
9.41826e-06
8.9915e-06
9.0494e-06
9.04357e-06
9.11727e-06
9.16366e-06
8.88158e-06
8.82669e-06
8.85521e-06
8.4904e-06
8.77009e-06
8.67985e-06
9.08828e-06
9.00635e-06
9.29717e-06
9.28133e-06
9.41663e-06
9.61612e-06
9.51266e-06
9.42516e-06
9.33103e-06
8.85132e-06
8.92832e-06
8.91356e-06
9.02434e-06
9.07972e-06
8.74321e-06
8.70922e-06
8.7424e-06
8.33297e-06
8.63778e-06
8.54599e-06
8.98069e-06
8.88139e-06
9.1871e-06
9.15846e-06
9.31066e-06
9.54695e-06
9.41847e-06
9.33363e-06
9.22679e-06
8.69205e-06
8.79065e-06
8.79074e-06
8.94652e-06
9.00905e-06
8.60802e-06
8.6049e-06
8.64205e-06
8.17943e-06
8.5138e-06
8.42102e-06
8.88585e-06
8.76521e-06
9.0884e-06
9.04126e-06
9.21375e-06
9.49284e-06
9.33178e-06
9.25289e-06
9.12893e-06
8.5313e-06
8.65841e-06
8.64278e-06
8.84496e-06
8.91716e-06
8.45067e-06
8.48144e-06
8.52485e-06
8.00892e-06
8.36929e-06
8.27815e-06
8.76763e-06
8.62593e-06
8.96236e-06
8.89573e-06
9.09183e-06
9.41678e-06
9.21928e-06
9.14432e-06
9.00385e-06
8.34436e-06
8.49983e-06
8.50522e-06
8.76715e-06
8.84192e-06
8.29463e-06
8.3777e-06
8.42333e-06
7.84125e-06
8.23739e-06
8.14717e-06
8.66733e-06
8.49671e-06
8.8513e-06
8.75502e-06
8.98312e-06
9.36008e-06
9.11126e-06
9.04719e-06
8.88294e-06
8.15198e-06
8.34923e-06
8.32334e-06
8.63874e-06
8.72216e-06
8.10225e-06
8.23116e-06
8.28346e-06
7.64326e-06
8.06513e-06
7.98067e-06
8.51972e-06
8.32407e-06
8.68789e-06
8.56368e-06
8.82466e-06
9.26029e-06
8.96024e-06
8.89869e-06
8.71484e-06
7.92223e-06
8.15489e-06
8.08842e-06
8.44434e-06
8.53181e-06
7.85526e-06
8.02975e-06
8.08087e-06
7.40405e-06
7.82626e-06
7.76749e-06
8.2737e-06
8.07299e-06
8.40213e-06
8.27153e-06
8.56384e-06
9.03322e-06
8.70209e-06
8.65443e-06
8.45878e-06
7.63521e-06
7.89043e-06
1.61004e-06
5.33103e-07
1.15901e-06
3.61575e-06
6.18138e-07
1.33133e-06
3.65277e-06
6.79409e-07
1.79414e-06
5.21371e-07
1.39216e-06
5.20098e-07
1.10753e-06
5.35423e-07
4.78256e-07
9.92289e-07
4.95338e-07
1.25511e-06
3.63252e-06
6.87171e-07
1.94839e-05
1.4607e-05
1.20653e-05
1.11968e-05
1.18023e-05
1.37672e-05
1.6821e-05
2.05621e-05
2.45505e-05
2.83971e-05
3.18077e-05
3.4583e-05
3.65881e-05
3.77175e-05
3.77999e-05
3.66276e-05
3.41377e-05
3.04112e-05
2.57381e-05
2.07065e-05
5.05023e-06
5.58269e-06
7.18251e-06
9.5201e-06
1.22235e-05
1.48395e-05
1.69637e-05
1.84448e-05
1.93193e-05
1.9609e-05
1.92723e-05
1.82956e-05
1.67403e-05
1.47176e-05
1.24792e-05
1.02493e-05
8.13969e-06
6.29868e-06
4.88965e-06
4.05828e-06
4.87719e-06
7.06646e-06
9.42758e-06
1.1344e-05
1.25918e-05
1.3275e-05
1.35984e-05
1.37258e-05
1.36123e-05
1.29294e-05
1.1536e-05
9.6699e-06
7.63837e-06
5.63596e-06
3.84344e-06
2.54894e-06
1.79993e-06
1.54139e-06
1.72773e-06
2.46586e-06
7.83265e-06
9.82028e-06
1.11414e-05
1.17771e-05
1.19973e-05
1.20605e-05
1.20456e-05
1.19941e-05
1.15745e-05
1.0139e-05
7.95353e-06
5.74136e-06
3.83958e-06
2.33366e-06
1.38144e-06
9.86758e-07
9.91119e-07
1.40903e-06
2.54209e-06
4.55114e-06
1.03566e-05
1.12564e-05
1.16815e-05
1.18191e-05
1.18543e-05
1.18395e-05
1.17743e-05
1.16713e-05
1.09317e-05
8.64176e-06
5.8749e-06
3.6541e-06
2.10672e-06
1.1727e-06
8.15672e-07
8.63665e-07
1.39629e-06
2.89668e-06
5.28076e-06
7.76009e-06
1.15076e-05
1.17165e-05
1.18419e-05
1.19278e-05
1.19891e-05
1.19847e-05
1.19131e-05
1.17859e-05
1.06674e-05
7.48465e-06
4.39096e-06
2.3446e-06
1.19128e-06
7.4873e-07
7.78288e-07
1.32764e-06
3.03457e-06
5.67679e-06
8.22291e-06
1.00211e-05
1.1964e-05
1.19526e-05
1.2052e-05
1.21833e-05
1.22751e-05
1.22761e-05
1.22006e-05
1.20617e-05
1.06257e-05
6.69656e-06
3.52848e-06
1.69662e-06
8.32833e-07
6.76807e-07
1.06733e-06
2.69345e-06
5.51735e-06
8.26167e-06
1.0141e-05
1.11632e-05
1.21324e-05
1.20719e-05
1.21919e-05
1.23683e-05
1.24942e-05
1.25206e-05
1.24665e-05
1.2343e-05
1.06721e-05
6.13476e-06
2.99737e-06
1.34684e-06
7.38203e-07
8.40688e-07
2.00292e-06
4.7838e-06
7.82355e-06
9.97412e-06
1.11348e-05
1.16787e-05
1.22353e-05
1.21734e-05
1.23121e-05
1.25119e-05
1.26637e-05
1.27189e-05
1.26943e-05
1.25918e-05
1.0468e-05
5.46231e-06
2.54383e-06
1.12128e-06
7.59494e-07
1.26027e-06
3.5117e-06
6.80283e-06
9.43853e-06
1.09335e-05
1.16291e-05
1.19454e-05
1.22691e-05
1.22087e-05
1.23554e-05
1.2563e-05
1.27355e-05
1.28294e-05
1.28491e-05
1.27838e-05
1.02327e-05
4.97004e-06
2.32106e-06
1.06912e-06
9.37459e-07
2.11813e-06
5.17924e-06
8.37666e-06
1.04399e-05
1.14466e-05
1.18755e-05
1.20784e-05
1.22739e-05
1.22133e-05
1.23605e-05
1.25651e-05
1.27394e-05
1.28677e-05
1.29387e-05
1.29256e-05
1.03164e-05
4.91153e-06
2.32406e-06
1.09205e-06
1.2732e-06
3.28377e-06
6.70917e-06
9.52118e-06
1.10634e-05
1.1738e-05
1.20087e-05
1.21476e-05
1.22388e-05
1.21752e-05
1.23176e-05
1.25127e-05
1.2678e-05
1.28263e-05
1.29449e-05
1.29922e-05
1.05708e-05
5.02299e-06
2.60717e-06
1.36893e-06
1.9905e-06
4.68158e-06
8.03543e-06
1.03415e-05
1.14549e-05
1.19e-05
1.20665e-05
1.21619e-05
1.21819e-05
1.21144e-05
1.22496e-05
1.24311e-05
1.25791e-05
1.27253e-05
1.28691e-05
1.29778e-05
1.05086e-05
4.94663e-06
2.64302e-06
1.28104e-06
2.29902e-06
5.42521e-06
8.72552e-06
1.07544e-05
1.16423e-05
1.19669e-05
1.20734e-05
1.21412e-05
1.21036e-05
1.20312e-05
1.21575e-05
1.23232e-05
1.24494e-05
1.25816e-05
1.27174e-05
1.28632e-05
1.04181e-05
5.08703e-06
3.57142e-06
2.01822e-06
3.30278e-06
6.51854e-06
9.4791e-06
1.11356e-05
1.17874e-05
1.19984e-05
1.20499e-05
1.2093e-05
1.20119e-05
1.19351e-05
1.20521e-05
1.22016e-05
1.23037e-05
1.24152e-05
1.25212e-05
1.26569e-05
1.02012e-05
4.59853e-06
2.39062e-06
1.49171e-06
3.46055e-06
7.01336e-06
9.89399e-06
1.13525e-05
1.18554e-05
1.19902e-05
1.20006e-05
1.20251e-05
1.19088e-05
1.18281e-05
1.19358e-05
1.207e-05
1.21481e-05
1.22381e-05
1.2304e-05
1.23988e-05
1.00348e-05
3.26098e-06
8.70361e-07
1.01064e-06
2.81679e-06
6.58657e-06
9.77842e-06
1.13405e-05
1.18327e-05
1.19427e-05
1.19289e-05
1.19408e-05
1.17979e-05
1.17147e-05
1.18136e-05
1.19334e-05
1.19891e-05
1.2059e-05
1.20843e-05
1.21441e-05
1.15736e-05
6.74618e-06
3.09127e-06
3.79588e-06
6.90961e-06
9.85278e-06
1.13439e-05
1.18331e-05
1.19027e-05
1.18927e-05
1.18422e-05
1.18441e-05
1.1682e-05
1.15974e-05
1.16877e-05
1.17944e-05
1.18303e-05
1.18855e-05
1.18804e-05
1.19312e-05
1.17656e-05
1.08582e-05
9.63125e-06
1.00425e-05
1.09514e-05
1.15897e-05
1.18229e-05
1.187e-05
1.18316e-05
1.18048e-05
1.17418e-05
1.17389e-05
1.1563e-05
1.14783e-05
1.15605e-05
1.16547e-05
1.16731e-05
1.17172e-05
1.16885e-05
1.17453e-05
1.16641e-05
1.16168e-05
1.14833e-05
1.16969e-05
1.18459e-05
1.19083e-05
1.18712e-05
1.18231e-05
1.17529e-05
1.17156e-05
1.16365e-05
1.16286e-05
1.14417e-05
1.13577e-05
1.14327e-05
1.15151e-05
1.1518e-05
1.15543e-05
1.15066e-05
1.15723e-05
1.15159e-05
1.15917e-05
1.16093e-05
1.17769e-05
1.18202e-05
1.18314e-05
1.1784e-05
1.17356e-05
1.16607e-05
1.16196e-05
1.1525e-05
1.15143e-05
1.13192e-05
1.12364e-05
1.13053e-05
1.1376e-05
1.13653e-05
1.13961e-05
1.1331e-05
1.14075e-05
1.13615e-05
1.14746e-05
1.1503e-05
1.16595e-05
1.16898e-05
1.17108e-05
1.16788e-05
1.16384e-05
1.15622e-05
1.15193e-05
1.14092e-05
1.13974e-05
1.1196e-05
1.11148e-05
1.11788e-05
1.12376e-05
1.12149e-05
1.1242e-05
1.11601e-05
1.12481e-05
1.12057e-05
1.13448e-05
1.13681e-05
1.15229e-05
1.15517e-05
1.15874e-05
1.15722e-05
1.15391e-05
1.14615e-05
1.14174e-05
1.12907e-05
1.12788e-05
1.10724e-05
1.09937e-05
1.10542e-05
1.11005e-05
1.1067e-05
1.1092e-05
1.0993e-05
1.10933e-05
1.10507e-05
1.1214e-05
1.12324e-05
1.13922e-05
1.14213e-05
1.14689e-05
1.14686e-05
1.14411e-05
1.13613e-05
1.13163e-05
1.11709e-05
1.11596e-05
1.09473e-05
1.08728e-05
1.09315e-05
1.09641e-05
1.09212e-05
1.09451e-05
1.08278e-05
1.0941e-05
1.08957e-05
1.10824e-05
1.10957e-05
1.12641e-05
1.12938e-05
1.13526e-05
1.13672e-05
1.13437e-05
1.12615e-05
1.12154e-05
1.10488e-05
1.10387e-05
1.08221e-05
1.07536e-05
1.08122e-05
1.08294e-05
1.07785e-05
1.08021e-05
1.06653e-05
1.07923e-05
1.07424e-05
1.09529e-05
1.09609e-05
1.11414e-05
1.11719e-05
1.12402e-05
1.12697e-05
1.12483e-05
1.11637e-05
1.11162e-05
1.09255e-05
1.09169e-05
1.06952e-05
1.06349e-05
1.06951e-05
1.06949e-05
1.06373e-05
1.06613e-05
1.05032e-05
1.06448e-05
1.05891e-05
1.08244e-05
1.08267e-05
1.10211e-05
1.10518e-05
1.11292e-05
1.11744e-05
1.11531e-05
1.10663e-05
1.10165e-05
1.0799e-05
1.07928e-05
1.05687e-05
1.05192e-05
1.0583e-05
1.05625e-05
1.04996e-05
1.05248e-05
1.03432e-05
1.05008e-05
1.04389e-05
1.07001e-05
1.06959e-05
1.09058e-05
1.09362e-05
1.10225e-05
1.10847e-05
1.10613e-05
1.09721e-05
1.09192e-05
1.06714e-05
1.06686e-05
1.04404e-05
1.04047e-05
1.04735e-05
1.04291e-05
1.03633e-05
1.03905e-05
1.01829e-05
1.03574e-05
1.02886e-05
1.05766e-05
1.05647e-05
1.07911e-05
1.08205e-05
1.09156e-05
1.09968e-05
1.0969e-05
1.0878e-05
1.0821e-05
1.05393e-05
1.05417e-05
1.03137e-05
1.02952e-05
1.03706e-05
1.02982e-05
1.02315e-05
1.02611e-05
1.00244e-05
1.02173e-05
1.01417e-05
1.0458e-05
1.04376e-05
1.06819e-05
1.07089e-05
1.08133e-05
1.09161e-05
1.08816e-05
1.07889e-05
1.07268e-05
1.04068e-05
1.04158e-05
1.0183e-05
1.01853e-05
1.02691e-05
1.01639e-05
1.0099e-05
1.01319e-05
9.86312e-06
1.0076e-05
9.99373e-06
1.03386e-05
1.03082e-05
1.05704e-05
1.05937e-05
1.07085e-05
1.08354e-05
1.07914e-05
1.06976e-05
1.06295e-05
1.02674e-05
1.02846e-05
1.00563e-05
1.00841e-05
1.01772e-05
1.00329e-05
9.9734e-06
1.00102e-05
9.70452e-06
9.93894e-06
9.85052e-06
1.02257e-05
1.01838e-05
1.0465e-05
1.04829e-05
1.06093e-05
1.07645e-05
1.0708e-05
1.06143e-05
1.05384e-05
1.01283e-05
1.01566e-05
9.92146e-06
9.97922e-06
1.00827e-05
9.89384e-06
9.84383e-06
9.88483e-06
9.53905e-06
9.79644e-06
9.70318e-06
1.01087e-05
1.00537e-05
1.03533e-05
1.03636e-05
1.05031e-05
1.06897e-05
1.06169e-05
1.05238e-05
1.04387e-05
9.97661e-06
1.00185e-05
9.79275e-06
9.88655e-06
1.00013e-05
9.75972e-06
9.72469e-06
9.77025e-06
9.3778e-06
9.66092e-06
9.56355e-06
1.00016e-05
9.93102e-06
1.02505e-05
1.02501e-05
1.04054e-05
1.06293e-05
1.05358e-05
1.04448e-05
1.03476e-05
9.8263e-06
9.88532e-06
9.64977e-06
9.78446e-06
9.91147e-06
9.61148e-06
9.59678e-06
9.64801e-06
9.20552e-06
9.51457e-06
9.41515e-06
9.88422e-06
9.7967e-06
1.01341e-05
1.01207e-05
1.02946e-05
1.05594e-05
1.04408e-05
1.03523e-05
1.02413e-05
9.65729e-06
9.73598e-06
9.51456e-06
9.69876e-06
9.83667e-06
9.4674e-06
9.48327e-06
9.53989e-06
9.03814e-06
9.37746e-06
9.27671e-06
9.78093e-06
9.6724e-06
1.00302e-05
9.9979e-06
1.0194e-05
1.05063e-05
1.0355e-05
1.02721e-05
1.01428e-05
9.48724e-06
9.59235e-06
9.35599e-06
9.59224e-06
9.74377e-06
9.30271e-06
9.35283e-06
9.4173e-06
8.85483e-06
9.22165e-06
9.12227e-06
9.65726e-06
9.52774e-06
9.90251e-06
9.8499e-06
1.00722e-05
1.04363e-05
1.0248e-05
1.01689e-05
1.00211e-05
9.29293e-06
9.42449e-06
9.20679e-06
9.50944e-06
9.66806e-06
9.13876e-06
9.2418e-06
9.31053e-06
8.67367e-06
9.07769e-06
8.97942e-06
9.5513e-06
9.39277e-06
9.78902e-06
9.70549e-06
9.96276e-06
1.03859e-05
1.01457e-05
1.00771e-05
9.90319e-06
9.09156e-06
9.2628e-06
9.01749e-06
9.38214e-06
9.55402e-06
8.9422e-06
9.09302e-06
9.1703e-06
8.46486e-06
8.89753e-06
8.80511e-06
9.40373e-06
9.21925e-06
9.62917e-06
9.51548e-06
9.80993e-06
1.03012e-05
1.00086e-05
9.94234e-06
9.74527e-06
8.85684e-06
9.0622e-06
8.77435e-06
9.19093e-06
9.36947e-06
8.68757e-06
8.88859e-06
8.96496e-06
8.21144e-06
8.65041e-06
8.58457e-06
9.16142e-06
8.96938e-06
9.35037e-06
9.22508e-06
9.55536e-06
1.00935e-05
9.76564e-06
9.71383e-06
9.498e-06
8.5608e-06
8.78947e-06
2.0265e-06
5.13032e-07
1.62899e-06
4.29457e-06
6.72218e-07
1.91118e-06
4.32355e-06
8.30362e-07
2.38565e-06
5.02181e-07
1.92247e-06
4.94637e-07
1.57294e-06
5.04749e-07
4.53692e-07
1.4432e-06
4.76018e-07
1.87866e-06
4.3853e-06
8.89488e-07
1.5029e-05
1.10132e-05
9.09136e-06
8.60155e-06
9.37252e-06
1.13283e-05
1.42497e-05
1.77854e-05
2.15303e-05
2.51139e-05
2.82492e-05
3.07377e-05
3.24441e-05
3.32653e-05
3.30489e-05
3.16228e-05
2.89758e-05
2.52531e-05
2.08056e-05
1.62329e-05
3.86141e-06
4.44234e-06
5.97012e-06
8.1927e-06
1.07697e-05
1.32651e-05
1.52878e-05
1.66949e-05
1.75063e-05
1.77108e-05
1.72517e-05
1.61411e-05
1.44885e-05
1.24442e-05
1.02652e-05
8.18015e-06
6.29074e-06
4.71909e-06
3.58308e-06
2.97125e-06
4.28317e-06
6.43198e-06
8.75639e-06
1.066e-05
1.19314e-05
1.26587e-05
1.30134e-05
1.31494e-05
1.29837e-05
1.21389e-05
1.05232e-05
8.50242e-06