/*--------------------------------*- C++ -*----------------------------------*\
| =========                 |                                                 |
| \\      /  F ield         | OpenFOAM: The Open Source CFD Toolbox           |
|  \\    /   O peration     | Version:  2.4.0                                 |
|   \\  /    A nd           | Web:      www.OpenFOAM.org                      |
|    \\/     M anipulation  |                                                 |
\*---------------------------------------------------------------------------*/
FoamFile
{
    version     2.0;
    format      ascii;
    class       volScalarField;
    location    "50";
    object      k;
}
// * * * * * * * * * * * * * * * * * * * * * * * * * * * * * * * * * * * * * //

dimensions      [0 2 -2 0 0 0 0];

internalField   nonuniform List<scalar> 
283312
(
3.29257e-06
2.64776e-06
2.17598e-06
1.93477e-06
1.94693e-06
2.22153e-06
2.73456e-06
3.4251e-06
4.21234e-06
5.01389e-06
5.75984e-06
6.39924e-06
6.8976e-06
7.22943e-06
7.34704e-06
7.20857e-06
6.79433e-06
6.11368e-06
5.21595e-06
4.20227e-06
5.78245e-07
7.13563e-07
9.77584e-07
1.38407e-06
1.89959e-06
2.44082e-06
2.91193e-06
3.25373e-06
3.45613e-06
3.52171e-06
3.44974e-06
3.2482e-06
2.93967e-06
2.55353e-06
2.14839e-06
1.74942e-06
1.37825e-06
1.05262e-06
7.91666e-07
6.13937e-07
4.97242e-07
9.52037e-07
1.44945e-06
1.88567e-06
2.193e-06
2.36448e-06
2.43787e-06
2.45436e-06
2.41298e-06
2.25597e-06
1.96276e-06
1.58906e-06
1.20388e-06
8.47148e-07
5.43423e-07
3.29892e-07
2.04568e-07
1.50969e-07
1.57503e-07
2.41801e-07
1.05161e-06
1.59064e-06
1.95975e-06
2.15501e-06
2.22966e-06
2.24197e-06
2.22569e-06
2.19539e-06
2.08447e-06
1.76909e-06
1.31618e-06
8.80783e-07
5.35725e-07
2.87912e-07
1.39503e-07
7.55664e-08
6.4328e-08
1.04563e-07
2.53388e-07
5.73014e-07
1.68284e-06
2.04554e-06
2.22e-06
2.28704e-06
2.30196e-06
2.28979e-06
2.25993e-06
2.21654e-06
2.02721e-06
1.52245e-06
9.48722e-07
5.17623e-07
2.50191e-07
1.072e-07
5.21029e-08
4.83636e-08
1.06936e-07
3.22447e-07
7.37367e-07
1.24221e-06
2.07138e-06
2.26676e-06
2.35538e-06
2.39953e-06
2.41441e-06
2.40294e-06
2.37045e-06
2.31974e-06
2.03277e-06
1.32684e-06
6.87266e-07
2.99422e-07
1.11493e-07
4.52907e-08
4.03508e-08
1.03381e-07
3.59202e-07
8.41686e-07
1.38781e-06
1.82682e-06
2.27599e-06
2.39775e-06
2.47045e-06
2.52213e-06
2.54413e-06
2.5353e-06
2.50251e-06
2.4485e-06
2.07284e-06
1.19233e-06
5.36417e-07
1.96573e-07
6.14522e-08
3.3272e-08
7.38396e-08
3.15075e-07
8.32978e-07
1.42932e-06
1.89586e-06
2.18021e-06
2.38861e-06
2.48246e-06
2.55475e-06
2.61505e-06
2.64686e-06
2.64594e-06
2.6198e-06
2.57036e-06
2.12151e-06
1.09275e-06
4.41084e-07
1.40596e-07
4.53284e-08
4.86796e-08
2.1223e-07
7.04846e-07
1.35443e-06
1.88358e-06
2.20452e-06
2.37219e-06
2.46144e-06
2.54452e-06
2.61826e-06
2.68301e-06
2.72406e-06
2.73368e-06
2.71789e-06
2.67588e-06
2.10134e-06
9.622e-07
3.57847e-07
1.05263e-07
4.46093e-08
1.0596e-07
4.76417e-07
1.14527e-06
1.77168e-06
2.17228e-06
2.37941e-06
2.48374e-06
2.50559e-06
2.58127e-06
2.65387e-06
2.71919e-06
2.76736e-06
2.79043e-06
2.78961e-06
2.76045e-06
2.06792e-06
8.66312e-07
3.16512e-07
9.64402e-08
6.5487e-08
2.41328e-07
8.13036e-07
1.53088e-06
2.05914e-06
2.3456e-06
2.48044e-06
2.55063e-06
2.53103e-06
2.60076e-06
2.67077e-06
2.73417e-06
2.78406e-06
2.81991e-06
2.83699e-06
2.82596e-06
2.10886e-06
8.5731e-07
3.17286e-07
1.0027e-07
1.12536e-07
4.50029e-07
1.1578e-06
1.83695e-06
2.2534e-06
2.45373e-06
2.54211e-06
2.59146e-06
2.54001e-06
2.60412e-06
2.67014e-06
2.72992e-06
2.77777e-06
2.82136e-06
2.85502e-06
2.86495e-06
2.1888e-06
8.82964e-07
3.60079e-07
1.42562e-07
2.27241e-07
7.30479e-07
1.4822e-06
2.07117e-06
2.38415e-06
2.52095e-06
2.57733e-06
2.61213e-06
2.53765e-06
2.59683e-06
2.65841e-06
2.71374e-06
2.75707e-06
2.80128e-06
2.84452e-06
2.87653e-06
2.18578e-06
8.67982e-07
3.67283e-07
1.30983e-07
2.8175e-07
8.97896e-07
1.66826e-06
2.20113e-06
2.4553e-06
2.55662e-06
2.59344e-06
2.61852e-06
2.52617e-06
2.58083e-06
2.63761e-06
2.68803e-06
2.7252e-06
2.76571e-06
2.80714e-06
2.853e-06
2.17091e-06
8.91447e-07
5.16393e-07
2.45572e-07
4.67791e-07
1.14913e-06
1.87141e-06
2.31939e-06
2.51025e-06
2.57817e-06
2.59748e-06
2.61422e-06
2.50835e-06
2.55911e-06
2.6112e-06
2.6568e-06
2.68717e-06
2.72198e-06
2.75503e-06
2.7995e-06
2.12069e-06
7.9726e-07
3.15672e-07
1.5825e-07
5.01443e-07
1.27576e-06
1.99291e-06
2.39261e-06
2.54134e-06
2.58588e-06
2.59175e-06
2.60203e-06
2.48553e-06
2.533e-06
2.58068e-06
2.62167e-06
2.64516e-06
2.67358e-06
2.69446e-06
2.72602e-06
2.0777e-06
5.6007e-07
8.15739e-08
7.00655e-08
3.747e-07
1.17468e-06
1.96275e-06
2.39304e-06
2.54088e-06
2.57879e-06
2.57719e-06
2.58337e-06
2.45924e-06
2.504e-06
2.54774e-06
2.5845e-06
2.6016e-06
2.62427e-06
2.6333e-06
2.65487e-06
2.49448e-06
1.28768e-06
4.82262e-07
5.79913e-07
1.25116e-06
1.99002e-06
2.40299e-06
2.55e-06
2.5734e-06
2.57235e-06
2.55781e-06
2.56015e-06
2.43054e-06
2.47302e-06
2.51331e-06
2.54619e-06
2.55762e-06
2.57597e-06
2.57588e-06
2.59438e-06
2.55005e-06
2.30574e-06
1.9669e-06
2.07161e-06
2.31556e-06
2.49645e-06
2.56208e-06
2.57396e-06
2.56007e-06
2.55173e-06
2.53272e-06
2.53343e-06
2.40028e-06
2.4409e-06
2.4782e-06
2.50748e-06
2.51394e-06
2.5291e-06
2.52212e-06
2.54213e-06
2.52147e-06
2.51482e-06
2.47395e-06
2.53402e-06
2.57397e-06
2.59281e-06
2.5802e-06
2.56407e-06
2.54073e-06
2.52934e-06
2.5055e-06
2.50468e-06
2.36884e-06
2.40807e-06
2.44281e-06
2.46864e-06
2.47075e-06
2.48361e-06
2.47095e-06
2.49317e-06
2.47873e-06
2.50605e-06
2.51064e-06
2.55864e-06
2.56822e-06
2.57154e-06
2.55614e-06
2.54051e-06
2.51634e-06
2.5042e-06
2.47595e-06
2.47429e-06
2.33646e-06
2.37491e-06
2.4075e-06
2.42994e-06
2.42826e-06
2.43952e-06
2.42178e-06
2.44686e-06
2.43462e-06
2.47145e-06
2.4788e-06
2.52401e-06
2.53035e-06
2.53683e-06
2.52668e-06
2.51405e-06
2.48997e-06
2.47755e-06
2.44483e-06
2.44281e-06
2.30339e-06
2.34161e-06
2.3725e-06
2.39149e-06
2.38649e-06
2.39663e-06
2.37403e-06
2.40211e-06
2.39026e-06
2.43379e-06
2.43946e-06
2.48469e-06
2.49079e-06
2.50148e-06
2.49649e-06
2.48656e-06
2.4626e-06
2.45007e-06
2.41265e-06
2.41037e-06
2.27005e-06
2.30851e-06
2.33809e-06
2.35346e-06
2.34555e-06
2.35503e-06
2.32756e-06
2.35892e-06
2.34647e-06
2.39625e-06
2.40006e-06
2.44691e-06
2.45326e-06
2.46759e-06
2.46707e-06
2.45907e-06
2.43517e-06
2.4225e-06
2.37986e-06
2.37736e-06
2.23638e-06
2.27555e-06
2.30431e-06
2.31576e-06
2.30536e-06
2.31443e-06
2.28183e-06
2.31665e-06
2.30298e-06
2.35897e-06
2.36094e-06
2.41047e-06
2.417e-06
2.4345e-06
2.43829e-06
2.43145e-06
2.40752e-06
2.39454e-06
2.34611e-06
2.34381e-06
2.20274e-06
2.24316e-06
2.27154e-06
2.2786e-06
2.26616e-06
2.27504e-06
2.23703e-06
2.2756e-06
2.26025e-06
2.32255e-06
2.32263e-06
2.37563e-06
2.38233e-06
2.40267e-06
2.41072e-06
2.40442e-06
2.3802e-06
2.36674e-06
2.31174e-06
2.3101e-06
2.16879e-06
2.21108e-06
2.23954e-06
2.24166e-06
2.22761e-06
2.23648e-06
2.19263e-06
2.23518e-06
2.21786e-06
2.28677e-06
2.28489e-06
2.34186e-06
2.34848e-06
2.37141e-06
2.38387e-06
2.37752e-06
2.35293e-06
2.33887e-06
2.27655e-06
2.27591e-06
2.13502e-06
2.17989e-06
2.20893e-06
2.20535e-06
2.19016e-06
2.19923e-06
2.14903e-06
2.19591e-06
2.17652e-06
2.25237e-06
2.24827e-06
2.30962e-06
2.31596e-06
2.34142e-06
2.35867e-06
2.35159e-06
2.3266e-06
2.31169e-06
2.24113e-06
2.24179e-06
2.10101e-06
2.14919e-06
2.1792e-06
2.16901e-06
2.15334e-06
2.16278e-06
2.10561e-06
2.15709e-06
2.1355e-06
2.21846e-06
2.21185e-06
2.2778e-06
2.28362e-06
2.31161e-06
2.33412e-06
2.32569e-06
2.30042e-06
2.2844e-06
2.20472e-06
2.20716e-06
2.06746e-06
2.11984e-06
2.15126e-06
2.13335e-06
2.11784e-06
2.12774e-06
2.06283e-06
2.1193e-06
2.09555e-06
2.18599e-06
2.17666e-06
2.24749e-06
2.2524e-06
2.28304e-06
2.31153e-06
2.30103e-06
2.27561e-06
2.25816e-06
2.16824e-06
2.17288e-06
2.03308e-06
2.09064e-06
2.12384e-06
2.097e-06
2.08245e-06
2.09297e-06
2.01968e-06
2.08149e-06
2.05564e-06
2.15353e-06
2.14111e-06
2.21681e-06
2.22044e-06
2.254e-06
2.28917e-06
2.27576e-06
2.25039e-06
2.23123e-06
2.13012e-06
2.13749e-06
1.99975e-06
2.06363e-06
2.09889e-06
2.06149e-06
2.04894e-06
2.06015e-06
1.9773e-06
2.0449e-06
2.01707e-06
2.1228e-06
2.10685e-06
2.18769e-06
2.18956e-06
2.22638e-06
2.26934e-06
2.25218e-06
2.22718e-06
2.20583e-06
2.09211e-06
2.10292e-06
1.9646e-06
2.03591e-06
2.07345e-06
2.02412e-06
2.0147e-06
2.02667e-06
1.93351e-06
2.00721e-06
1.97777e-06
2.09118e-06
2.07136e-06
2.1571e-06
2.15664e-06
2.19715e-06
2.24863e-06
2.22667e-06
2.20227e-06
2.17829e-06
2.05105e-06
2.06599e-06
1.93085e-06
2.01122e-06
2.05119e-06
1.98787e-06
1.98312e-06
1.99584e-06
1.89079e-06
1.97129e-06
1.9404e-06
2.06206e-06
2.0377e-06
2.12872e-06
2.12506e-06
2.16994e-06
2.23154e-06
2.20352e-06
2.1802e-06
2.15278e-06
2.01021e-06
2.03024e-06
1.89387e-06
1.98429e-06
2.02689e-06
1.9483e-06
1.94962e-06
1.96333e-06
1.84569e-06
1.93293e-06
1.90113e-06
2.03046e-06
2.00124e-06
2.09693e-06
2.08949e-06
2.13954e-06
2.21207e-06
2.1768e-06
2.15469e-06
2.12339e-06
1.96491e-06
1.99062e-06
1.85854e-06
1.96134e-06
2.0061e-06
1.90952e-06
1.91968e-06
1.93414e-06
1.8017e-06
1.8968e-06
1.86422e-06
2.0023e-06
1.96716e-06
2.06822e-06
2.05535e-06
2.1115e-06
2.19673e-06
2.15202e-06
2.13213e-06
2.09564e-06
1.91911e-06
1.9523e-06
1.81778e-06
1.93314e-06
1.98074e-06
1.86584e-06
1.88571e-06
1.90153e-06
1.75421e-06
1.85622e-06
1.82355e-06
1.96896e-06
1.92801e-06
2.03336e-06
2.01477e-06
2.07806e-06
2.17693e-06
2.12164e-06
2.10346e-06
2.06191e-06
1.86754e-06
1.90808e-06
1.77896e-06
1.91077e-06
1.95926e-06
1.82199e-06
1.85653e-06
1.87252e-06
1.70702e-06
1.81849e-06
1.78552e-06
1.93997e-06
1.89103e-06
2.00199e-06
1.97473e-06
2.0475e-06
2.16184e-06
2.09191e-06
2.07749e-06
2.02865e-06
1.81392e-06
1.86524e-06
1.73067e-06
1.87674e-06
1.92777e-06
1.77034e-06
1.81774e-06
1.8351e-06
1.65355e-06
1.77172e-06
1.73974e-06
1.90007e-06
1.8443e-06
1.95839e-06
1.92295e-06
2.00543e-06
2.13724e-06
2.05276e-06
2.03979e-06
1.98486e-06
1.75242e-06
1.81267e-06
1.66695e-06
1.82284e-06
1.87538e-06
1.70277e-06
1.762e-06
1.77886e-06
1.58789e-06
1.70504e-06
1.68018e-06
1.83105e-06
1.77507e-06
1.87873e-06
1.84195e-06
1.9326e-06
2.07384e-06
1.98222e-06
1.97358e-06
1.9152e-06
1.67436e-06
1.73902e-06
1.98469e-07
2.1667e-09
1.40972e-07
6.5438e-07
2.63308e-08
1.78542e-07
6.6339e-07
4.50871e-08
2.65996e-07
2.39904e-09
1.87846e-07
9.26235e-10
1.34759e-07
4.06976e-10
1.51342e-10
1.1549e-07
1.4415e-09
1.67739e-07
6.73493e-07
5.03875e-08
2.38487e-06
1.87358e-06
1.52297e-06
1.36549e-06
1.4163e-06
1.6862e-06
2.15801e-06
2.78265e-06
3.49034e-06
4.20642e-06
4.86551e-06
5.41895e-06
5.83356e-06
6.08543e-06
6.13684e-06
5.94945e-06
5.51573e-06
4.85754e-06
4.03432e-06
3.14789e-06
3.84613e-07
5.06592e-07
7.42316e-07
1.10987e-06
1.58049e-06
2.07762e-06
2.51103e-06
2.82586e-06
3.00984e-06
3.05919e-06
2.96963e-06
2.75301e-06
2.43979e-06
2.06538e-06
1.68205e-06
1.32241e-06
1.00235e-06
7.34338e-07
5.30347e-07
4.00091e-07
4.08064e-07
8.29757e-07
1.30124e-06
1.7214e-06
2.02508e-06
2.20261e-06
2.28317e-06
2.30351e-06
2.25501e-06
2.07237e-06
1.74577e-06
1.35353e-06
9.7665e-07
6.52139e-07
3.94277e-07
2.24204e-07
1.31175e-07
9.49098e-08
1.03983e-07
1.79029e-07
1.01603e-06
1.54427e-06
1.91828e-06
2.13177e-06
2.23036e-06
2.26065e-06
2.25198e-06
2.2194e-06
2.0851e-06
1.71293e-06
1.20406e-06
7.49175e-07
4.21325e-07
2.08581e-07
9.26279e-08
4.72137e-08
4.12784e-08
7.76326e-08
2.2528e-07
5.52029e-07
1.73251e-06
2.09943e-06
2.29918e-06
2.39909e-06
2.44007e-06
2.44027e-06
2.41084e-06
2.35822e-06
2.12841e-06
1.53086e-06
8.83668e-07
4.36247e-07
1.89396e-07
7.3091e-08
3.32984e-08
3.24593e-08
9.07347e-08
3.23957e-07
7.70143e-07
1.30367e-06
2.20817e-06
2.41598e-06
2.53814e-06
2.6167e-06
2.65242e-06
2.64759e-06
2.61099e-06
2.54775e-06
2.20364e-06
1.36916e-06
6.47541e-07
2.48932e-07
8.08519e-08
2.98579e-08
2.75468e-08
9.27983e-08
3.81315e-07
9.15222e-07
1.50611e-06
1.97795e-06
2.48513e-06
2.62098e-06
2.72852e-06
2.81227e-06
2.85159e-06
2.84707e-06
2.80924e-06
2.74264e-06
2.29781e-06
1.25669e-06
5.13802e-07
1.64035e-07
4.40641e-08
2.27918e-08
6.44001e-08
3.427e-07
9.2838e-07
1.58484e-06
2.09328e-06
2.40858e-06
2.65353e-06
2.76047e-06
2.8667e-06
2.95642e-06
3.00363e-06
3.00632e-06
2.97583e-06
2.91559e-06
2.39044e-06
1.17229e-06
4.3075e-07
1.19078e-07
3.3181e-08
3.8271e-08
2.28075e-07
7.98147e-07
1.52681e-06
2.11058e-06
2.46735e-06
2.66257e-06
2.76597e-06
2.86008e-06
2.96627e-06
3.05869e-06
3.11485e-06
3.12892e-06
3.11068e-06
3.06067e-06
2.39313e-06
1.04535e-06
3.55772e-07
9.04974e-08
3.402e-08
1.03574e-07
5.41548e-07
1.30876e-06
2.01001e-06
2.4562e-06
2.69265e-06
2.81999e-06
2.83811e-06
2.92276e-06
3.02615e-06
3.11785e-06
3.18142e-06
3.21023e-06
3.20932e-06
3.1757e-06
2.37422e-06
9.56407e-07
3.27993e-07
8.85632e-08
5.6725e-08
2.64088e-07
9.35682e-07
1.75589e-06
2.3499e-06
2.67348e-06
2.83161e-06
2.92038e-06
2.88257e-06
2.95921e-06
3.05834e-06
3.14725e-06
3.21312e-06
3.25637e-06
3.27601e-06
3.26456e-06
2.43806e-06
9.67488e-07
3.48325e-07
9.90748e-08
1.09675e-07
5.08081e-07
1.3348e-06
2.1127e-06
2.58524e-06
2.81498e-06
2.92105e-06
2.98485e-06
2.90423e-06
2.97338e-06
3.0669e-06
3.15137e-06
3.21558e-06
3.26799e-06
3.30658e-06
3.31993e-06
2.54458e-06
1.01843e-06
4.27842e-07
1.59717e-07
2.43764e-07
8.31048e-07
1.70709e-06
2.38696e-06
2.74702e-06
2.90674e-06
2.97611e-06
3.02193e-06
2.90988e-06
2.9724e-06
3.05991e-06
3.13919e-06
3.19903e-06
3.25318e-06
3.30355e-06
3.34253e-06
2.55267e-06
1.01998e-06
4.54551e-07
1.51314e-07
3.05451e-07
1.02091e-06
1.92184e-06
2.54351e-06
2.84002e-06
2.95991e-06
3.00607e-06
3.03937e-06
2.90296e-06
2.95948e-06
3.04072e-06
3.1143e-06
3.1677e-06
3.21858e-06
3.26829e-06
3.32331e-06
2.54468e-06
1.06316e-06
6.63105e-07
3.01208e-07
5.21007e-07
1.304e-06
2.15243e-06
2.68298e-06
2.91081e-06
2.99351e-06
3.01922e-06
3.04199e-06
2.88718e-06
2.9385e-06
3.01374e-06
3.0817e-06
3.12776e-06
3.17293e-06
3.21458e-06
3.26934e-06
2.49559e-06
9.63816e-07
4.1652e-07
1.88614e-07
5.51869e-07
1.44456e-06
2.29165e-06
2.77116e-06
2.95296e-06
3.00928e-06
3.01917e-06
3.03375e-06
2.86444e-06
2.91139e-06
2.98108e-06
3.0436e-06
3.08196e-06
3.12011e-06
3.14834e-06
3.18786e-06
2.44633e-06
6.43505e-07
7.80481e-08
5.54653e-08
3.7918e-07
1.31609e-06
2.25629e-06
2.77553e-06
2.9575e-06
3.00623e-06
3.00726e-06
3.01658e-06
2.83686e-06
2.88012e-06
2.94489e-06
3.00243e-06
3.03352e-06
3.06519e-06
3.07998e-06
3.10709e-06
2.9334e-06
1.51675e-06
5.4458e-07
6.35163e-07
1.41281e-06
2.28782e-06
2.78686e-06
2.97036e-06
3.00324e-06
3.00424e-06
2.98911e-06
2.99324e-06
2.80572e-06
2.84586e-06
2.90641e-06
2.95938e-06
2.98392e-06
3.01048e-06
3.0145e-06
3.03661e-06
2.98806e-06
2.70447e-06
2.32378e-06
2.43969e-06
2.71677e-06
2.92368e-06
2.99828e-06
3.01105e-06
2.99409e-06
2.98417e-06
2.96314e-06
2.96491e-06
2.77219e-06
2.80975e-06
2.86672e-06
2.91547e-06
2.93424e-06
2.95697e-06
2.95281e-06
2.97558e-06
2.9519e-06
2.93677e-06
2.88804e-06
2.95467e-06
3.00479e-06
3.03094e-06
3.0186e-06
3.00043e-06
2.9732e-06
2.9601e-06
2.93375e-06
2.93351e-06
2.7368e-06
2.77245e-06
2.82636e-06
2.87114e-06
2.88481e-06
2.90469e-06
2.89377e-06
2.91828e-06
2.90139e-06
2.92605e-06
2.92768e-06
2.98114e-06
2.99686e-06
3.00505e-06
2.9899e-06
2.97309e-06
2.94569e-06
2.93221e-06
2.90111e-06
2.89969e-06
2.69994e-06
2.73446e-06
2.78585e-06
2.82676e-06
2.83598e-06
2.85384e-06
2.83693e-06
2.86415e-06
2.84981e-06
2.88638e-06
2.8924e-06
2.94287e-06
2.95416e-06
2.96507e-06
2.95574e-06
2.94273e-06
2.91587e-06
2.90234e-06
2.86633e-06
2.86419e-06
2.66198e-06
2.69607e-06
2.74549e-06
2.78253e-06
2.78783e-06
2.80424e-06
2.78165e-06
2.81185e-06
2.79815e-06
2.84321e-06
2.84864e-06
2.8991e-06
2.90938e-06
2.92424e-06
2.92059e-06
2.91101e-06
2.88464e-06
2.87119e-06
2.82998e-06
2.82717e-06
2.62352e-06
2.65773e-06
2.70569e-06
2.73869e-06
2.74055e-06
2.75602e-06
2.72782e-06
2.76138e-06
2.74722e-06
2.79979e-06
2.80407e-06
2.85637e-06
2.86661e-06
2.88513e-06
2.88641e-06
2.87923e-06
2.85321e-06
2.83971e-06
2.79271e-06
2.78924e-06
2.58455e-06
2.61945e-06
2.6665e-06
2.69517e-06
2.69406e-06
2.70892e-06
2.67483e-06
2.71196e-06
2.69664e-06
2.75652e-06
2.75948e-06
2.81478e-06
2.82503e-06
2.84679e-06
2.85286e-06
2.8472e-06
2.82136e-06
2.80756e-06
2.75411e-06
2.7505e-06
2.54554e-06
2.58174e-06
2.62841e-06
2.65228e-06
2.64866e-06
2.66319e-06
2.62292e-06
2.66397e-06
2.64691e-06
2.71404e-06
2.71548e-06
2.77467e-06
2.78511e-06
2.8099e-06
2.8207e-06
2.81584e-06
2.7898e-06
2.77552e-06
2.71473e-06
2.7115e-06
2.50613e-06
2.54432e-06
2.59116e-06
2.60964e-06
2.60399e-06
2.6184e-06
2.57147e-06
2.61669e-06
2.59757e-06
2.67221e-06
2.67195e-06
2.73561e-06
2.74604e-06
2.77365e-06
2.78938e-06
2.78467e-06
2.75828e-06
2.74336e-06
2.6744e-06
2.6719e-06
2.46694e-06
2.50791e-06
2.55552e-06
2.56779e-06
2.56061e-06
2.57515e-06
2.52099e-06
2.57076e-06
2.54942e-06
2.63189e-06
2.62961e-06
2.69821e-06
2.70847e-06
2.73891e-06
2.76001e-06
2.75471e-06
2.72792e-06
2.7121e-06
2.63388e-06
2.6324e-06
2.42748e-06
2.47206e-06
2.52091e-06
2.52598e-06
2.51797e-06
2.53285e-06
2.47077e-06
2.52538e-06
2.50164e-06
2.59213e-06
2.58746e-06
2.6613e-06
2.67116e-06
2.70446e-06
2.73148e-06
2.72494e-06
2.69783e-06
2.68081e-06
2.5923e-06
2.59233e-06
2.3886e-06
2.43781e-06
2.48844e-06
2.48511e-06
2.47693e-06
2.49228e-06
2.42137e-06
2.48124e-06
2.4551e-06
2.55404e-06
2.54674e-06
2.62616e-06
2.63524e-06
2.67156e-06
2.70531e-06
2.69678e-06
2.66949e-06
2.65093e-06
2.55082e-06
2.55276e-06
2.34886e-06
2.4038e-06
2.4567e-06
2.44359e-06
2.43609e-06
2.45213e-06
2.37164e-06
2.43714e-06
2.40868e-06
2.51613e-06
2.50578e-06
2.59083e-06
2.59872e-06
2.63837e-06
2.67967e-06
2.66821e-06
2.64094e-06
2.62052e-06
2.50765e-06
2.51201e-06
2.31041e-06
2.37236e-06
2.42792e-06
2.40327e-06
2.39754e-06
2.41437e-06
2.32296e-06
2.39457e-06
2.36385e-06
2.48029e-06
2.46642e-06
2.55744e-06
2.56361e-06
2.60699e-06
2.65709e-06
2.64183e-06
2.61491e-06
2.59213e-06
2.46482e-06
2.47233e-06
2.27011e-06
2.34038e-06
2.39889e-06
2.36111e-06
2.35838e-06
2.37612e-06
2.27284e-06
2.35094e-06
2.31839e-06
2.4438e-06
2.42603e-06
2.52284e-06
2.52665e-06
2.57426e-06
2.63404e-06
2.61384e-06
2.58747e-06
2.56178e-06
2.41884e-06
2.43021e-06
2.23147e-06
2.31189e-06
2.37367e-06
2.32045e-06
2.32236e-06
2.34106e-06
2.22414e-06
2.30946e-06
2.27522e-06
2.41028e-06
2.38788e-06
2.49091e-06
2.49141e-06
2.54398e-06
2.61527e-06
2.58877e-06
2.5635e-06
2.53404e-06
2.37333e-06
2.38952e-06
2.18969e-06
2.28152e-06
2.34683e-06
2.27657e-06
2.28466e-06
2.30463e-06
2.17311e-06
2.2657e-06
2.23038e-06
2.3747e-06
2.34732e-06
2.45606e-06
2.45253e-06
2.51099e-06
2.59485e-06
2.56072e-06
2.53666e-06
2.50284e-06
2.32338e-06
2.34502e-06
2.14973e-06
2.25556e-06
2.32405e-06
2.2337e-06
2.25096e-06
2.27204e-06
2.12345e-06
2.22448e-06
2.18824e-06
2.34301e-06
2.3095e-06
2.42468e-06
2.41533e-06
2.48069e-06
2.57912e-06
2.53506e-06
2.51326e-06
2.47366e-06
2.27293e-06
2.3019e-06
2.10475e-06
2.22508e-06
2.2975e-06
2.18628e-06
2.21378e-06
2.23666e-06
2.07055e-06
2.17923e-06
2.14281e-06
2.30686e-06
2.26728e-06
2.38798e-06
2.37241e-06
2.44598e-06
2.56036e-06
2.505e-06
2.48496e-06
2.43951e-06
2.21713e-06
2.25333e-06
2.06136e-06
2.20048e-06
2.27498e-06
2.13838e-06
2.18137e-06
2.2049e-06
2.01765e-06
2.13662e-06
2.09994e-06
2.27504e-06
2.22708e-06
2.35456e-06
2.32955e-06
2.41386e-06
2.5464e-06
2.4755e-06
2.45933e-06
2.40558e-06
2.15863e-06
2.20559e-06
2.00951e-06
2.16566e-06
2.24396e-06
2.08357e-06
2.14052e-06
2.16591e-06
1.9591e-06
2.0859e-06
2.0503e-06
2.23361e-06
2.17823e-06
2.31023e-06
2.27604e-06
2.37172e-06
2.52525e-06
2.43865e-06
2.42402e-06
2.36286e-06
2.09317e-06
2.14922e-06
1.94127e-06
2.11068e-06
2.19106e-06
2.01111e-06
2.08167e-06
2.10643e-06
1.88685e-06
2.01422e-06
1.98628e-06
2.16268e-06
2.10631e-06
2.22907e-06
2.19194e-06
2.29752e-06
2.46467e-06
2.36915e-06
2.35928e-06
2.29245e-06
2.00912e-06
2.07015e-06
3.12517e-07
3.84058e-09
2.4496e-07
8.68466e-07
5.52714e-08
3.06527e-07
8.77883e-07
9.26281e-08
4.144e-07
4.62288e-09
3.10351e-07
1.48338e-09
2.36456e-07
6.09318e-10
1.47236e-10
2.10423e-07
2.73487e-09
2.97951e-07
9.07244e-07
1.05873e-07
1.67678e-06
1.28494e-06
1.03485e-06
9.41239e-07
1.0154e-06
1.27098e-06
1.69788e-06
2.25734e-06
2.88838e-06
3.52269e-06
4.09882e-06
4.57052e-06
4.90652e-06
5.08527e-06
5.07699e-06
4.85138e-06
4.41185e-06
3.79065e-06
3.05346e-06
2.29788e-06
2.51404e-07
3.58717e-07
5.68023e-07
9.0141e-07
1.33351e-06
1.79304e-06
2.19413e-06
2.4852e-06
2.65132e-06
2.68221e-06
2.57099e-06
2.33558e-06
2.01619e-06
1.65465e-06
1.29916e-06
9.81784e-07
7.12707e-07
4.98625e-07
3.44596e-07
2.53026e-07
3.49565e-07
7.53224e-07
1.2129e-06
1.62812e-06
1.93571e-06
2.12231e-06
2.21063e-06
2.23386e-06
2.1744e-06
1.95714e-06
1.58547e-06
1.16546e-06
7.91746e-07
4.96179e-07
2.7989e-07
1.47751e-07
8.11303e-08
5.78963e-08
6.80602e-08
1.37315e-07
1.03973e-06
1.57151e-06
1.96144e-06
2.20045e-06
2.32618e-06
2.3745e-06
2.37244e-06
2.33558e-06
2.17081e-06
1.72406e-06
1.13872e-06
6.50306e-07
3.32009e-07
1.48731e-07
5.97629e-08
2.86186e-08
2.61697e-08
6.13531e-08
2.21161e-07
5.75115e-07
1.87182e-06
2.25065e-06
2.48265e-06
2.62004e-06
2.68829e-06
2.70068e-06
2.67036e-06
2.60615e-06
2.32545e-06
1.60692e-06
8.58131e-07
3.77889e-07
1.43637e-07
4.88186e-08
2.07704e-08
2.18382e-08
8.72723e-08
3.60858e-07
8.63998e-07
1.44673e-06
2.45371e-06
2.67775e-06
2.83873e-06
2.95509e-06
3.01252e-06
3.01406e-06
2.97209e-06
2.894e-06
2.47908e-06
1.47728e-06
6.40513e-07
2.14049e-07
5.86273e-08
1.93347e-08
1.88577e-08
9.58562e-08
4.45931e-07
1.06121e-06
1.71844e-06
2.23666e-06
2.81442e-06
2.96662e-06
3.11377e-06
3.23231e-06
3.28999e-06
3.28965e-06
3.24571e-06
3.1645e-06
2.63492e-06
1.38548e-06
5.20022e-07
1.42942e-07
3.1734e-08
1.554e-08
6.45324e-08
4.11252e-07
1.09993e-06
1.84089e-06
2.40539e-06
2.7598e-06
3.04598e-06
3.16765e-06
3.31223e-06
3.43381e-06
3.49756e-06
3.5039e-06
3.46833e-06
3.39577e-06
2.77826e-06
1.31529e-06
4.46959e-07
1.06474e-07
2.45999e-08
3.25441e-08
2.74072e-07
9.62301e-07
1.80037e-06
2.45569e-06
2.85715e-06
3.08512e-06
3.20295e-06
3.30938e-06
3.45218e-06
3.57465e-06
3.64718e-06
3.66594e-06
3.64483e-06
3.5858e-06
2.80606e-06
1.18882e-06
3.78394e-07
8.32014e-08
2.68558e-08
1.15775e-07
6.62261e-07
1.56693e-06
2.36602e-06
2.86903e-06
3.14048e-06
3.29444e-06
3.30647e-06
3.40111e-06
3.53922e-06
3.65972e-06
3.74001e-06
3.77505e-06
3.77395e-06
3.73538e-06
2.80268e-06
1.10609e-06
3.66395e-07
8.93319e-08
5.43694e-08
3.18915e-07
1.13611e-06
2.09214e-06
2.76883e-06
3.13714e-06
3.32244e-06
3.43245e-06
3.37226e-06
3.4566e-06
3.5886e-06
3.7055e-06
3.78881e-06
3.84012e-06
3.8625e-06
3.85063e-06
2.89305e-06
1.14153e-06
4.11553e-07
1.08507e-07
1.19661e-07
6.15863e-07
1.60649e-06
2.51095e-06
3.0522e-06
3.31668e-06
3.44317e-06
3.52343e-06
3.40817e-06
3.48295e-06
3.60755e-06
3.71931e-06
3.80143e-06
3.86346e-06
3.9074e-06
3.92459e-06
3.03102e-06
1.22394e-06
5.41582e-07
1.97052e-07
2.86439e-07
9.98437e-07
2.03935e-06
2.8329e-06
3.24968e-06
3.43621e-06
3.52055e-06
3.57894e-06
3.42287e-06
3.48912e-06
3.60603e-06
3.71196e-06
3.78998e-06
3.85497e-06
3.91305e-06
3.95981e-06
3.05193e-06
1.24697e-06
5.93547e-07
1.9178e-07
3.59666e-07
1.21853e-06
2.28927e-06
3.02046e-06
3.36755e-06
3.50912e-06
3.56611e-06
3.60884e-06
3.42116e-06
3.47975e-06
3.58884e-06
3.68835e-06
3.75973e-06
3.82196e-06
3.88063e-06
3.9458e-06
3.05221e-06
1.31538e-06
8.82514e-07
3.92887e-07
6.18073e-07
1.54293e-06
2.55267e-06
3.18423e-06
3.45624e-06
3.5563e-06
3.58957e-06
3.61935e-06
3.40777e-06
3.45973e-06
3.56144e-06
3.65457e-06
3.71815e-06
3.77472e-06
3.82574e-06
3.89189e-06
3.00504e-06
1.20815e-06
5.74742e-07
2.45003e-07
6.47502e-07
1.70219e-06
2.71327e-06
3.2897e-06
3.51096e-06
3.58125e-06
3.59604e-06
3.61569e-06
3.38527e-06
3.43161e-06
3.52657e-06
3.61349e-06
3.66856e-06
3.7175e-06
3.75382e-06
3.80217e-06
2.94957e-06
7.74324e-07
8.09752e-08
4.53916e-08
4.14641e-07
1.542e-06
2.67336e-06
3.29938e-06
3.52154e-06
3.583e-06
3.58731e-06
3.60041e-06
3.35637e-06
3.39789e-06
3.48694e-06
3.56813e-06
3.61509e-06
3.65681e-06
3.67805e-06
3.71147e-06
3.52363e-06
1.8487e-06
6.56516e-07
7.46532e-07
1.66864e-06
2.71231e-06
3.31318e-06
3.53887e-06
3.58276e-06
3.58629e-06
3.5708e-06
3.57717e-06
3.32263e-06
3.36005e-06
3.44409e-06
3.52005e-06
3.55956e-06
3.59537e-06
3.60411e-06
3.63044e-06
3.57785e-06
3.25004e-06
2.82189e-06
2.95167e-06
3.26641e-06
3.50183e-06
3.5856e-06
3.59902e-06
3.57864e-06
3.5671e-06
3.54408e-06
3.54724e-06
3.28551e-06
3.31955e-06
3.3994e-06
3.47055e-06
3.50348e-06
3.53479e-06
3.534e-06
3.56004e-06
3.53356e-06
3.50954e-06
3.45224e-06
3.52592e-06
3.58692e-06
3.62075e-06
3.60832e-06
3.58775e-06
3.55628e-06
3.54142e-06
3.51249e-06
3.51308e-06
3.24579e-06
3.2773e-06
3.3536e-06
3.42024e-06
3.44733e-06
3.47524e-06
3.46651e-06
3.49378e-06
3.4746e-06
3.49674e-06
3.49519e-06
3.55439e-06
3.57655e-06
3.58983e-06
3.5747e-06
3.5565e-06
3.52556e-06
3.51072e-06
3.47663e-06
3.4756e-06
3.20394e-06
3.23394e-06
3.30737e-06
3.36967e-06
3.39164e-06
3.41707e-06
3.40139e-06
3.43116e-06
3.41486e-06
3.45146e-06
3.45607e-06
3.51209e-06
3.52861e-06
3.54418e-06
3.53557e-06
3.52206e-06
3.49212e-06
3.47746e-06
3.43794e-06
3.43573e-06
3.16052e-06
3.18988e-06
3.2611e-06
3.31911e-06
3.33653e-06
3.36016e-06
3.33791e-06
3.37063e-06
3.35521e-06
3.40218e-06
3.4074e-06
3.46343e-06
3.47814e-06
3.49742e-06
3.49512e-06
3.48582e-06
3.4568e-06
3.44237e-06
3.39707e-06
3.39371e-06
3.11634e-06
3.14571e-06
3.21532e-06
3.26888e-06
3.2823e-06
3.30472e-06
3.27602e-06
3.31218e-06
3.2964e-06
3.35226e-06
3.3571e-06
3.41525e-06
3.42964e-06
3.45262e-06
3.4558e-06
3.44943e-06
3.42106e-06
3.40662e-06
3.35487e-06
3.35035e-06
3.07142e-06
3.10148e-06
3.17012e-06
3.21893e-06
3.22887e-06
3.25047e-06
3.21504e-06
3.25491e-06
3.23799e-06
3.30233e-06
3.30643e-06
3.36795e-06
3.3822e-06
3.40851e-06
3.41703e-06
3.41257e-06
3.38461e-06
3.36987e-06
3.31094e-06
3.30587e-06
3.02638e-06
3.0578e-06
3.12611e-06
3.16968e-06
3.17664e-06
3.19775e-06
3.15528e-06
3.19925e-06
3.18053e-06
3.25314e-06
3.25609e-06
3.32202e-06
3.33649e-06
3.36606e-06
3.37985e-06
3.37645e-06
3.34838e-06
3.33312e-06
3.26599e-06
3.26101e-06
2.98082e-06
3.0144e-06
3.08301e-06
3.12071e-06
3.12519e-06
3.14607e-06
3.09601e-06
3.14438e-06
3.12346e-06
3.20456e-06
3.20611e-06
3.27708e-06
3.29163e-06
3.32429e-06
3.34358e-06
3.34055e-06
3.31215e-06
3.29621e-06
3.21994e-06
3.21538e-06
2.93551e-06
2.97213e-06
3.04173e-06
3.07268e-06
3.0752e-06
3.09615e-06
3.03788e-06
3.09104e-06
3.06772e-06
3.15766e-06
3.15738e-06
3.23395e-06
3.24845e-06
3.28427e-06
3.30959e-06
3.30612e-06
3.2773e-06
3.26037e-06
3.1737e-06
3.16987e-06
2.88989e-06
2.93049e-06
3.00165e-06
3.02476e-06
3.02608e-06
3.04735e-06
2.98005e-06
3.03835e-06
3.01238e-06
3.11136e-06
3.10881e-06
3.19134e-06
3.20561e-06
3.24466e-06
3.27663e-06
3.27202e-06
3.24285e-06
3.22461e-06
3.12634e-06
3.12373e-06
2.84498e-06
2.89069e-06
2.96408e-06
2.97803e-06
2.97883e-06
3.00058e-06
2.92323e-06
2.9871e-06
2.95846e-06
3.067e-06
3.0619e-06
3.15081e-06
3.16442e-06
3.20692e-06
3.24647e-06
3.23992e-06
3.21054e-06
3.19062e-06
3.07924e-06
3.07823e-06
2.79916e-06
2.85125e-06
2.92746e-06
2.9307e-06
2.93188e-06
2.95439e-06
2.86608e-06
2.93596e-06
2.90471e-06
3.02296e-06
3.01485e-06
3.11027e-06
3.12279e-06
3.1691e-06
3.21715e-06
3.20765e-06
3.17824e-06
3.15629e-06
3.03038e-06
3.03148e-06
2.75487e-06
2.81477e-06
2.89433e-06
2.88492e-06
2.88765e-06
2.91107e-06
2.81026e-06
2.88664e-06
2.85281e-06
2.98137e-06
2.96971e-06
3.07204e-06
3.0829e-06
3.13347e-06
3.19147e-06
3.1781e-06
3.149e-06
3.1245e-06
2.98209e-06
2.98603e-06
2.70867e-06
2.77794e-06
2.86123e-06
2.83733e-06
2.84292e-06
2.86742e-06
2.75295e-06
2.83632e-06
2.80037e-06
2.93938e-06
2.92377e-06
3.03292e-06
3.04138e-06
3.09679e-06
3.16579e-06
3.14728e-06
3.11871e-06
3.09097e-06
2.93054e-06
2.93806e-06
2.66439e-06
2.74509e-06
2.83258e-06
2.79159e-06
2.80183e-06
2.82754e-06
2.69739e-06
2.78849e-06
2.75058e-06
2.90085e-06
2.88049e-06
2.99694e-06
3.00194e-06
3.063e-06
3.14505e-06
3.11999e-06
3.09251e-06
3.06062e-06
2.87967e-06
2.89175e-06
2.61709e-06
2.71077e-06
2.80282e-06
2.74278e-06
2.75935e-06
2.78665e-06
2.63956e-06
2.7386e-06
2.69937e-06
2.86075e-06
2.83523e-06
2.95859e-06
2.9593e-06
3.02709e-06
3.12353e-06
3.09041e-06
3.06414e-06
3.02737e-06
2.8244e-06
2.84172e-06
2.57169e-06
2.68126e-06
2.77764e-06
2.69512e-06
2.72127e-06
2.75011e-06
2.5833e-06
2.69149e-06
2.65116e-06
2.82494e-06
2.79305e-06
2.92407e-06
2.91852e-06
2.99413e-06
3.10725e-06
3.06361e-06
3.03967e-06
2.99645e-06
2.76857e-06
2.79307e-06
2.52178e-06
2.64809e-06
2.74966e-06
2.64335e-06
2.68039e-06
2.71152e-06
2.52412e-06
2.64087e-06
2.60024e-06
2.78554e-06
2.74727e-06
2.88524e-06
2.87292e-06
2.95799e-06
3.08963e-06
3.03388e-06
3.01175e-06
2.96181e-06
2.70794e-06
2.73957e-06
2.47294e-06
2.62072e-06
2.72569e-06
2.59058e-06
2.64412e-06
2.67644e-06
2.46443e-06
2.5925e-06
2.55162e-06
2.75029e-06
2.70317e-06
2.84928e-06
2.82666e-06
2.92391e-06
3.07673e-06
3.00445e-06
2.98633e-06
2.92697e-06
2.64368e-06
2.68611e-06
2.41684e-06
2.58486e-06
2.6951e-06
2.53207e-06
2.60086e-06
2.63561e-06
2.39994e-06
2.53719e-06
2.49746e-06
2.70705e-06
2.65186e-06
2.80411e-06
2.77117e-06
2.88171e-06
3.05946e-06
2.97022e-06
2.95374e-06
2.8855e-06
2.57371e-06
2.62539e-06
2.34285e-06
2.528e-06
2.64108e-06
2.45355e-06
2.538e-06
2.57207e-06
2.31964e-06
2.45931e-06
2.42784e-06
2.63337e-06
2.57636e-06
2.72066e-06
2.68308e-06
2.80541e-06
3.00143e-06
2.90148e-06
2.89031e-06
2.81403e-06
2.48259e-06
2.53981e-06
5.14686e-07
1.09809e-08
4.36942e-07
1.19926e-06
1.31638e-07
5.36046e-07
1.21026e-06
2.02936e-07
6.6666e-07
1.44216e-08
5.29572e-07
3.31495e-09
4.27853e-07
1.12879e-09
1.4846e-10
3.93844e-07
9.63316e-09
5.35323e-07
1.26548e-06
2.31939e-07
1.14044e-06
8.51226e-07
6.81136e-07
6.33674e-07
7.19174e-07
9.54386e-07
1.33621e-06
1.83397e-06
2.39351e-06
2.95148e-06
3.44976e-06
3.84464e-06
4.1075e-06
4.22015e-06
4.16004e-06
3.90697e-06
3.47408e-06
2.90144e-06
2.25704e-06
1.63001e-06
1.61487e-07
2.54676e-07
4.42043e-07
7.49007e-07
1.15186e-06
1.58292e-06
1.95899e-06
2.23077e-06
2.38016e-06
2.38999e-06
2.2518e-06
1.99227e-06
1.66367e-06
1.31447e-06
9.8926e-07
7.14414e-07
4.93782e-07
3.27954e-07
2.1588e-07
1.54489e-07
3.21858e-07
7.25487e-07
1.18987e-06
1.61315e-06
1.93369e-06
2.13334e-06
2.2307e-06
2.25604e-06
2.18092e-06
1.9172e-06
1.48454e-06
1.02362e-06