/*--------------------------------*- C++ -*----------------------------------*\
| =========                 |                                                 |
| \\      /  F ield         | OpenFOAM: The Open Source CFD Toolbox           |
|  \\    /   O peration     | Version:  2.4.0                                 |
|   \\  /    A nd           | Web:      www.OpenFOAM.org                      |
|    \\/     M anipulation  |                                                 |
\*---------------------------------------------------------------------------*/
FoamFile
{
    version     2.0;
    format      ascii;
    class       volScalarField;
    location    "50";
    object      nut;
}
// * * * * * * * * * * * * * * * * * * * * * * * * * * * * * * * * * * * * * //

dimensions      [0 2 -1 0 0 0 0];

internalField   nonuniform List<scalar> 
283312
(
3.19417e-08
2.63152e-08
2.12568e-08
1.85021e-08
1.86682e-08
2.21304e-08
2.89518e-08
3.86922e-08
5.04218e-08
6.29133e-08
7.49271e-08
8.54418e-08
9.37145e-08
9.91969e-08
1.01e-07
9.84296e-08
9.13049e-08
8.00551e-08
6.58182e-08
5.03856e-08
3.51676e-09
5.1735e-09
8.16786e-09
1.31923e-08
2.0276e-08
2.84293e-08
3.60275e-08
4.17866e-08
4.52095e-08
4.61354e-08
4.45431e-08
4.07613e-08
3.54478e-08
2.93099e-08
2.33203e-08
1.78628e-08
1.31822e-08
9.37404e-09
6.50888e-09
4.63281e-09
3.37903e-09
9.10548e-09
1.64527e-08
2.36885e-08
2.93225e-08
3.275e-08
3.42382e-08
3.44859e-08
3.34375e-08
3.01019e-08
2.45108e-08
1.81627e-08
1.24235e-08
7.79837e-09
4.36674e-09
2.25908e-09
1.18081e-09
7.62316e-10
7.89247e-10
1.42991e-09
1.10677e-08
2.06873e-08
2.81158e-08
3.26598e-08
3.48799e-08
3.55067e-08
3.51996e-08
3.43457e-08
3.15836e-08
2.4751e-08
1.61565e-08
9.17857e-09
4.65873e-09
2.03405e-09
7.56805e-10
3.10312e-10
2.36208e-10
4.76447e-10
1.74878e-09
5.5136e-09
2.3397e-08
3.21774e-08
3.70985e-08
3.96729e-08
4.07621e-08
4.07148e-08
3.99218e-08
3.8562e-08
3.36539e-08
2.23159e-08
1.13835e-08
4.85225e-09
1.78192e-09
5.50301e-10
1.88732e-10
1.62543e-10
5.41641e-10
2.77062e-09
8.6729e-09
1.73141e-08
3.36949e-08
4.01459e-08
4.37036e-08
4.59442e-08
4.69049e-08
4.67013e-08
4.56713e-08
4.39643e-08
3.63294e-08
2.00664e-08
7.94962e-09
2.4672e-09
6.14839e-10
1.61205e-10
1.29106e-10
5.49233e-10
3.48339e-09
1.11283e-08
2.14489e-08
3.08248e-08
4.07393e-08
4.58757e-08
4.9209e-08
5.16549e-08
5.26872e-08
5.24895e-08
5.13989e-08
4.95422e-08
3.93223e-08
1.85322e-08
6.06221e-09
1.46982e-09
2.74582e-10
1.0269e-10
3.45642e-10
3.07739e-09
1.16003e-08
2.34184e-08
3.38711e-08
4.10224e-08
4.56032e-08
5.01367e-08
5.34916e-08
5.6103e-08
5.73311e-08
5.73042e-08
5.63727e-08
5.4629e-08
4.21888e-08
1.73531e-08
4.89406e-09
9.64096e-10
1.77241e-10
1.87215e-10
1.81362e-09
9.70697e-09
2.27245e-08
3.47962e-08
4.29783e-08
4.78593e-08
4.90339e-08
5.32544e-08
5.6631e-08
5.93027e-08
6.07939e-08
6.1089e-08
6.0488e-08
5.90049e-08
4.29772e-08
1.52846e-08
3.83681e-09
6.59893e-10
1.72945e-10
6.50206e-10
5.91765e-09
1.89238e-08
3.31102e-08
4.32102e-08
4.90533e-08
5.24518e-08
5.14254e-08
5.53809e-08
5.86827e-08
6.1322e-08
6.30275e-08
6.37367e-08
6.36125e-08
6.25793e-08
4.31702e-08
1.38737e-08
3.42705e-09
6.07757e-10
3.16577e-10
2.29803e-09
1.24093e-08
2.81612e-08
4.12054e-08
4.9005e-08
5.31284e-08
5.56076e-08
5.29914e-08
5.67017e-08
5.98763e-08
6.24283e-08
6.42256e-08
6.53611e-08
6.58232e-08
6.54204e-08
4.51433e-08
1.42769e-08
3.70942e-09
6.78426e-10
7.36936e-10
5.62415e-09
1.99976e-08
3.62601e-08
4.7254e-08
5.30435e-08
5.59133e-08
5.77443e-08
5.39091e-08
5.73802e-08
6.03802e-08
6.28013e-08
6.45748e-08
6.59882e-08
6.69956e-08
6.73064e-08
4.80257e-08
1.54545e-08
4.86438e-09
1.23495e-09
2.14228e-09
1.09095e-08
2.77852e-08
4.29138e-08
5.16595e-08
5.58236e-08
5.77568e-08
5.91e-08
5.43338e-08
5.75859e-08
6.03963e-08
6.26675e-08
6.43444e-08
6.58368e-08
6.72024e-08
6.82674e-08
4.85725e-08
1.56666e-08
5.39653e-09
1.14326e-09
2.92617e-09
1.44275e-08
3.26841e-08
4.70115e-08
5.43891e-08
5.75696e-08
5.88759e-08
5.98619e-08
5.43823e-08
5.74336e-08
6.00436e-08
6.21525e-08
6.3668e-08
6.50906e-08
6.64631e-08
6.80082e-08
4.86242e-08
1.65781e-08
8.79489e-09
2.96045e-09
6.02639e-09
1.99622e-08
3.80554e-08
5.06875e-08
5.64924e-08
5.87349e-08
5.94863e-08
6.01731e-08
5.4156e-08
5.70299e-08
5.94448e-08
6.13966e-08
6.27253e-08
6.40098e-08
6.51895e-08
6.6769e-08
4.76373e-08
1.4971e-08
4.92397e-09
1.50156e-09
6.52633e-09
2.29248e-08
4.14841e-08
5.31311e-08
5.78331e-08
5.93871e-08
5.96992e-08
6.01482e-08
5.37161e-08
5.64379e-08
5.86707e-08
6.04717e-08
6.1597e-08
6.26955e-08
6.35156e-08
6.46679e-08
4.64198e-08
9.12466e-09
5.29029e-10
3.24895e-10
3.9778e-09
2.01811e-08
4.05893e-08
5.33041e-08
5.80893e-08
5.94691e-08
5.9544e-08
5.98447e-08
5.31272e-08
5.57163e-08
5.77875e-08
5.94502e-08
6.03841e-08
6.13114e-08
6.17748e-08
6.25858e-08
5.82716e-08
2.57052e-08
6.69106e-09
7.73227e-09
2.19889e-08
4.13383e-08
5.36945e-08
5.85956e-08
5.95353e-08
5.95992e-08
5.92086e-08
5.93531e-08
5.24266e-08
5.48993e-08
5.6833e-08
5.83693e-08
5.91278e-08
5.99146e-08
6.00837e-08
6.07334e-08
5.95398e-08
5.25099e-08
4.31291e-08
4.57405e-08
5.2443e-08
5.77328e-08
5.96604e-08
5.99699e-08
5.94656e-08
5.91886e-08
5.86267e-08
5.87026e-08
5.16519e-08
5.40202e-08
5.58401e-08
5.72607e-08
5.78657e-08
5.85471e-08
5.84955e-08
5.91419e-08
5.85558e-08
5.81794e-08
5.68259e-08
5.85118e-08
5.98179e-08
6.05851e-08
6.02651e-08
5.97625e-08
5.89906e-08
5.86346e-08
5.79354e-08
5.79565e-08
5.08195e-08
5.31011e-08
5.48266e-08
5.61383e-08
5.66078e-08
5.72085e-08
5.69733e-08
5.76469e-08
5.72185e-08
5.78597e-08
5.78317e-08
5.92101e-08
5.96304e-08
5.99097e-08
5.95173e-08
5.90687e-08
5.83123e-08
5.79602e-08
5.71442e-08
5.71339e-08
4.99414e-08
5.21609e-08
5.38082e-08
5.50151e-08
5.53673e-08
5.59095e-08
5.55156e-08
5.62457e-08
5.5872e-08
5.68148e-08
5.69141e-08
5.82204e-08
5.85231e-08
5.88655e-08
5.86342e-08
5.83004e-08
5.75729e-08
5.72289e-08
5.62906e-08
5.62595e-08
4.90269e-08
5.12094e-08
5.27942e-08
5.38973e-08
5.41464e-08
5.46454e-08
5.4103e-08
5.48976e-08
5.45336e-08
5.56927e-08
5.57915e-08
5.71023e-08
5.73709e-08
5.7803e-08
5.7721e-08
5.74897e-08
5.67898e-08
5.64562e-08
5.53893e-08
5.53363e-08
4.80968e-08
5.02602e-08
5.17961e-08
5.27923e-08
5.29522e-08
5.34216e-08
5.2735e-08
5.36054e-08
5.32247e-08
5.45695e-08
5.46436e-08
5.60018e-08
5.62666e-08
5.67894e-08
5.68357e-08
5.66761e-08
5.59999e-08
5.56703e-08
5.44607e-08
5.43813e-08
4.71551e-08
4.93145e-08
5.08158e-08
5.16989e-08
5.17822e-08
5.22305e-08
5.13961e-08
5.23475e-08
5.19337e-08
5.34586e-08
5.35037e-08
5.49381e-08
5.51994e-08
5.57996e-08
5.59675e-08
5.58504e-08
5.51946e-08
5.48597e-08
5.34934e-08
5.3403e-08
4.62149e-08
4.83854e-08
4.98658e-08
5.06254e-08
5.06454e-08
5.10796e-08
5.00918e-08
5.11333e-08
5.06726e-08
5.23733e-08
5.23807e-08
5.39121e-08
5.4176e-08
5.48516e-08
5.51395e-08
5.50445e-08
5.43937e-08
5.40466e-08
5.2503e-08
5.242e-08
4.52686e-08
4.74671e-08
4.89402e-08
4.95633e-08
4.95323e-08
4.99582e-08
4.88071e-08
4.99445e-08
4.943e-08
5.13111e-08
5.12772e-08
5.29186e-08
5.31795e-08
5.39248e-08
5.43361e-08
5.42465e-08
5.35941e-08
5.32323e-08
5.14908e-08
5.14254e-08
4.43309e-08
4.65767e-08
4.80573e-08
4.85251e-08
4.84568e-08
4.88804e-08
4.75545e-08
4.87963e-08
4.82236e-08
5.0292e-08
5.02073e-08
5.19701e-08
5.22246e-08
5.30398e-08
5.35856e-08
5.34824e-08
5.28264e-08
5.24431e-08
5.04775e-08
5.04375e-08
4.3392e-08
4.57039e-08
4.72041e-08
4.74943e-08
4.74065e-08
4.78325e-08
4.63167e-08
4.76695e-08
4.7035e-08
4.92936e-08
4.9149e-08
5.10396e-08
5.12821e-08
5.21684e-08
5.28615e-08
5.2728e-08
5.20701e-08
5.16582e-08
4.94445e-08
4.94414e-08
4.24709e-08
4.48728e-08
4.64058e-08
4.64912e-08
4.64005e-08
4.68319e-08
4.51069e-08
4.65795e-08
4.58836e-08
4.83406e-08
4.8131e-08
5.01564e-08
5.03776e-08
5.13391e-08
5.21987e-08
5.20165e-08
5.13607e-08
5.0911e-08
4.84189e-08
4.84616e-08
4.15352e-08
4.40528e-08
4.56305e-08
4.54795e-08
4.54073e-08
4.58488e-08
4.38986e-08
4.54989e-08
4.47435e-08
4.73996e-08
4.71149e-08
4.92764e-08
4.94664e-08
5.05102e-08
5.1556e-08
5.13013e-08
5.06526e-08
5.01575e-08
4.73598e-08
4.74605e-08
4.06332e-08
4.32955e-08
4.49282e-08
4.45017e-08
4.44741e-08
4.49274e-08
4.27227e-08
4.44609e-08
4.36472e-08
4.65123e-08
4.61416e-08
4.84465e-08
4.85924e-08
4.97281e-08
5.09908e-08
5.06425e-08
5.00091e-08
4.9456e-08
4.63142e-08
4.64889e-08
3.96959e-08
4.25329e-08
4.42267e-08
4.34887e-08
4.35352e-08
4.40031e-08
4.15234e-08
4.34077e-08
4.25463e-08
4.56181e-08
4.51539e-08
4.75972e-08
4.76834e-08
4.89235e-08
5.0423e-08
4.99529e-08
4.93407e-08
4.87153e-08
4.52029e-08
4.54679e-08
3.87987e-08
4.18529e-08
4.3616e-08
4.25145e-08
4.26746e-08
4.31574e-08
4.03644e-08
4.24096e-08
4.15036e-08
4.47979e-08
4.42228e-08
4.68146e-08
4.68179e-08
4.81791e-08
4.99597e-08
4.93352e-08
4.87584e-08
4.80393e-08
4.41069e-08
4.44838e-08
3.78415e-08
4.11383e-08
4.29766e-08
4.14771e-08
4.1786e-08
4.22906e-08
3.91644e-08
4.13711e-08
4.04339e-08
4.39407e-08
4.32478e-08
4.59754e-08
4.58791e-08
4.7384e-08
4.947e-08
4.86588e-08
4.81201e-08
4.7293e-08
4.29201e-08
4.34219e-08
3.6925e-08
4.0525e-08
4.24307e-08
4.04649e-08
4.09922e-08
4.15139e-08
3.80012e-08
4.03939e-08
3.94295e-08
4.31757e-08
4.23387e-08
4.52193e-08
4.498e-08
4.6652e-08
4.90921e-08
4.80385e-08
4.7565e-08
4.6594e-08
4.17243e-08
4.2393e-08
3.59116e-08
3.98204e-08
4.18105e-08
3.93638e-08
4.01336e-08
4.06878e-08
3.67813e-08
3.93404e-08
3.83654e-08
4.23225e-08
4.13441e-08
4.43557e-08
4.3965e-08
4.58356e-08
4.86621e-08
4.73331e-08
4.69134e-08
4.57974e-08
4.04252e-08
4.12561e-08
3.49301e-08
3.92471e-08
4.12775e-08
3.82501e-08
3.93819e-08
3.99402e-08
3.55619e-08
3.83457e-08
3.73567e-08
4.15671e-08
4.03928e-08
4.35653e-08
4.29451e-08
4.50737e-08
4.83398e-08
4.66364e-08
4.63223e-08
4.50001e-08
3.90617e-08
4.01334e-08
3.37841e-08
3.84573e-08
4.05683e-08
3.70032e-08
3.84585e-08
3.90493e-08
3.42397e-08
3.71885e-08
3.62157e-08
4.06109e-08
3.92661e-08
4.25444e-08
4.17028e-08
4.41022e-08
4.78746e-08
4.57958e-08
4.55325e-08
4.40269e-08
3.75695e-08
3.88392e-08
3.22665e-08
3.71789e-08
3.93346e-08
3.53474e-08
3.70954e-08
3.7668e-08
3.26027e-08
3.55282e-08
3.47363e-08
3.89365e-08
3.75953e-08
4.06251e-08
3.97308e-08
4.23413e-08
4.64144e-08
4.41616e-08
4.40177e-08
4.23846e-08
3.56464e-08
3.69976e-08
2.4145e-09
7.57653e-13
1.80166e-09
1.17763e-08
9.93765e-11
2.62364e-09
1.1923e-08
2.7471e-10
4.16427e-09
9.49008e-13
2.68078e-09
1.40599e-13
1.71043e-09
2.61703e-14
4.08303e-15
1.39706e-09
3.60702e-13
2.5302e-09
1.26283e-08
3.45481e-10
2.07489e-08
1.66909e-08
1.32896e-08
1.1665e-08
1.22338e-08
1.5349e-08
2.1152e-08
2.93676e-08
3.92484e-08
4.97309e-08
5.97043e-08
6.82399e-08
7.46662e-08
7.85088e-08
7.91219e-08
7.59397e-08
6.90135e-08
5.89418e-08
4.69051e-08
3.45294e-08
2.02032e-09
3.28449e-09
5.70989e-09
9.95702e-09
1.60963e-08
2.32566e-08
2.99734e-08
3.50802e-08
3.80668e-08
3.86752e-08
3.68401e-08
3.29741e-08
2.78599e-08
2.22595e-08
1.69824e-08
1.24343e-08
8.73135e-09
5.87835e-09
3.85693e-09
2.62668e-09
2.65669e-09
7.83296e-09
1.47294e-08
2.1676e-08
2.72449e-08
3.07706e-08
3.2395e-08
3.27149e-08
3.15143e-08
2.76748e-08
2.15124e-08
1.49762e-08
9.55381e-09
5.57242e-09
2.87331e-09
1.35177e-09
6.43584e-10
3.9803e-10
4.41232e-10
9.61462e-10
1.11881e-08
2.0858e-08
2.85929e-08
3.36779e-08
3.64997e-08
3.75258e-08
3.73699e-08
3.64196e-08
3.30268e-08
2.47881e-08
1.49585e-08
7.64318e-09
3.45126e-09
1.33204e-09
4.3075e-10
1.57352e-10
1.23331e-10
3.19766e-10
1.59345e-09
5.63138e-09
2.57639e-08
3.50026e-08
4.07831e-08
4.43319e-08
4.61169e-08
4.63706e-08
4.55319e-08
4.38449e-08
3.76858e-08
2.37304e-08
1.09363e-08
4.02053e-09
1.24749e-09
3.23444e-10
9.74838e-11
9.01376e-11
4.58853e-10
3.07549e-09
9.96201e-09
1.97092e-08
3.87494e-08
4.58535e-08
5.05549e-08
5.38853e-08
5.54402e-08
5.53867e-08
5.41628e-08
5.19871e-08
4.24268e-08
2.22408e-08
7.84722e-09
2.01534e-09
3.99344e-10
8.69924e-11
7.30434e-11
5.13645e-10
4.20741e-09
1.34932e-08
2.5489e-08
3.62063e-08
4.81797e-08
5.40043e-08
5.85847e-08
6.21004e-08
6.36662e-08
6.35588e-08
6.22341e-08
5.98753e-08
4.71759e-08
2.1221e-08
6.17714e-09
1.21084e-09
1.72489e-10
5.79879e-11
3.05696e-10
3.87343e-09
1.455e-08
2.85846e-08
4.07273e-08
4.91362e-08
5.49906e-08
6.01821e-08
6.48035e-08
6.84291e-08
7.01624e-08
7.02161e-08
6.9074e-08
6.68744e-08
5.15591e-08
2.04006e-08
5.1572e-09
8.12187e-10
1.13338e-10
1.35355e-10
2.26464e-09
1.25074e-08
2.83641e-08
4.26026e-08
5.2263e-08
5.82446e-08
5.9856e-08
6.46678e-08
6.92905e-08
7.29424e-08
7.49567e-08
7.53787e-08
7.46414e-08
7.2798e-08
5.31668e-08
1.83483e-08
4.17576e-09
5.68794e-10
1.17922e-10
6.99236e-10
7.78078e-09
2.41572e-08
4.12159e-08
5.31882e-08
6.02424e-08
6.45562e-08
6.33021e-08
6.7776e-08
7.22814e-08
7.58708e-08
7.81279e-08
7.90309e-08
7.88701e-08
7.76127e-08
5.39046e-08
1.70693e-08
3.98866e-09
5.86287e-10
2.72481e-10
2.92528e-09
1.61846e-08
3.56777e-08
5.13452e-08
6.06934e-08
6.57811e-08
6.90039e-08
6.55991e-08
6.97498e-08
7.4075e-08
7.75574e-08
7.99393e-08
8.13492e-08
8.18925e-08
8.14314e-08
5.67489e-08
1.80391e-08
4.69458e-09
7.40656e-10
7.80489e-10
7.30143e-09
2.57216e-08
4.57366e-08
5.90188e-08
6.60467e-08
6.96528e-08
7.20676e-08
6.70171e-08
7.08554e-08
7.49472e-08
7.82762e-08
8.06539e-08
8.24079e-08
8.36047e-08
8.40233e-08
6.0657e-08
1.99837e-08
6.80184e-09
1.6515e-09
2.62643e-09
1.40034e-08
3.53165e-08
5.39851e-08
6.46744e-08
6.98095e-08
7.22876e-08
7.4081e-08
6.77624e-08
7.13126e-08
7.51548e-08
7.83126e-08
8.06025e-08
8.24832e-08
8.41337e-08
8.5469e-08
6.16499e-08
2.07105e-08
7.88943e-09
1.6081e-09
3.62009e-09
1.83387e-08
4.13451e-08
5.91595e-08
6.82893e-08
7.22612e-08
7.39638e-08
7.52899e-08
6.79994e-08
7.1288e-08
7.48701e-08
7.78405e-08
7.99598e-08
8.1787e-08
8.34882e-08
8.54062e-08
6.1987e-08
2.22227e-08
1.30507e-08
4.38375e-09
7.60122e-09
2.50322e-08
4.78032e-08
6.37039e-08
7.10441e-08
7.39201e-08
7.49472e-08
7.58877e-08
6.78623e-08
7.09192e-08
7.42512e-08
7.70387e-08
7.89521e-08
8.06402e-08
8.21578e-08
8.41591e-08
6.10651e-08
2.04387e-08
7.77971e-09
2.20466e-09
8.08223e-09
2.8565e-08
5.19687e-08
6.67777e-08
7.2849e-08
7.49094e-08
7.53973e-08
7.60297e-08
6.74352e-08
7.02936e-08
7.3396e-08
7.60031e-08
7.76823e-08
7.91589e-08
8.02634e-08
8.17409e-08
5.96406e-08
1.20255e-08
5.56774e-10
2.36827e-10
4.39489e-09
2.49497e-08
5.0914e-08
6.7125e-08
7.33186e-08
7.51651e-08
7.53573e-08
7.57953e-08
6.6804e-08
6.94871e-08
7.23879e-08
7.4829e-08
7.62842e-08
7.75615e-08
7.82465e-08
7.92938e-08
7.44085e-08
3.37762e-08
8.81225e-09
9.63522e-09
2.75306e-08
5.19192e-08
6.76365e-08
7.40094e-08
7.53405e-08
7.5496e-08
7.50834e-08
7.53082e-08
6.60162e-08
6.85441e-08
7.12765e-08
7.35654e-08
7.48116e-08
7.59188e-08
7.6245e-08
7.70597e-08
7.57145e-08
6.71623e-08
5.6062e-08
5.91318e-08
6.71543e-08
7.3489e-08
7.57622e-08
7.60951e-08
7.54589e-08
7.51199e-08
7.44749e-08
7.4601e-08
6.51205e-08
6.75106e-08
7.01054e-08
7.22555e-08
7.33179e-08
7.42959e-08
7.43517e-08
7.51341e-08
7.44534e-08
7.38208e-08
7.21599e-08
7.41073e-08
7.57799e-08
7.68121e-08
7.64768e-08
7.58751e-08
7.49359e-08
7.45102e-08
7.37045e-08
7.37564e-08
6.41407e-08
6.64194e-08
6.88993e-08
7.09195e-08
7.18183e-08
7.2695e-08
7.25247e-08
7.33181e-08
7.28134e-08
7.34211e-08
7.32994e-08
7.48951e-08
7.55174e-08
7.59626e-08
7.55567e-08
7.5044e-08
7.41442e-08
7.3736e-08
7.27971e-08
7.28033e-08
6.30916e-08
6.52938e-08
6.76796e-08
6.95757e-08
7.03321e-08
7.11345e-08
7.07698e-08
7.16153e-08
7.11739e-08
7.21665e-08
7.22276e-08
7.37457e-08
7.4211e-08
7.4709e-08
7.44935e-08
7.41299e-08
7.32763e-08
7.28842e-08
7.18031e-08
7.17737e-08
6.19885e-08
6.41474e-08
6.64592e-08
6.82333e-08
6.8864e-08
6.96103e-08
6.90646e-08
6.99748e-08
6.95482e-08
7.08191e-08
7.09145e-08
7.24406e-08
7.2847e-08
7.34297e-08
7.33879e-08
7.31571e-08
7.23469e-08
7.19715e-08
7.07397e-08
7.06709e-08
6.0862e-08
6.29988e-08
6.52532e-08
6.69026e-08
6.74239e-08
6.81307e-08
6.74103e-08
6.84008e-08
6.79583e-08
6.94598e-08
6.95509e-08
7.11355e-08
7.15298e-08
7.22081e-08
7.23153e-08
7.21756e-08
7.14029e-08
7.10336e-08
6.96348e-08
6.95206e-08
5.97177e-08
6.18509e-08
6.40653e-08
6.55836e-08
6.60097e-08
6.66878e-08
6.57891e-08
6.68666e-08
6.63891e-08
6.8111e-08
6.81874e-08
6.98634e-08
7.02491e-08
7.101e-08
7.1259e-08
7.11743e-08
7.04326e-08
7.00569e-08
6.84749e-08
6.83376e-08
5.8573e-08
6.07204e-08
6.29114e-08
6.42873e-08
6.46336e-08
6.52916e-08
6.42083e-08
6.53846e-08
6.48546e-08
6.67875e-08
6.68346e-08
6.86264e-08
6.90156e-08
6.98614e-08
7.02503e-08
7.01962e-08
6.9463e-08
6.90741e-08
6.7283e-08
6.71461e-08
5.74195e-08
5.96012e-08
6.17855e-08
6.30043e-08
6.32844e-08
6.39296e-08
6.26501e-08
6.39318e-08
6.33409e-08
6.54888e-08
6.55002e-08
6.74233e-08
6.78113e-08
6.87374e-08
6.92706e-08
6.9228e-08
6.84942e-08
6.8089e-08
6.60647e-08
6.59389e-08
5.62758e-08
5.85144e-08
6.07102e-08
6.17506e-08
6.19799e-08
6.26199e-08
6.11305e-08
6.25276e-08
6.18699e-08
6.424e-08
6.42032e-08
6.62715e-08
6.66555e-08
6.76638e-08
6.83553e-08
6.83025e-08
6.75652e-08
6.71357e-08
6.48464e-08
6.47396e-08
5.51309e-08
5.74486e-08
5.96709e-08
6.05075e-08
6.07058e-08
6.13466e-08
5.9629e-08
6.11496e-08
6.04195e-08
6.30155e-08
6.29188e-08
6.51404e-08
6.55157e-08
6.66089e-08
6.74741e-08
6.73926e-08
6.66528e-08
6.61906e-08
6.36066e-08
6.3531e-08
5.4008e-08
5.64333e-08
5.86991e-08
5.93006e-08
5.94862e-08
6.01319e-08
5.81621e-08
5.9816e-08
5.90133e-08
6.18456e-08
6.16826e-08
6.40671e-08
6.44233e-08
6.56069e-08
6.66689e-08
6.65382e-08
6.58002e-08
6.52952e-08
6.23792e-08
6.23436e-08
5.28698e-08
5.54333e-08
5.77583e-08
5.80871e-08
5.82837e-08
5.89407e-08
5.66989e-08
5.84954e-08
5.76218e-08
6.0694e-08
6.04529e-08
6.30037e-08
6.33295e-08
6.46123e-08
6.58952e-08
6.56877e-08
6.49568e-08
6.43999e-08
6.11168e-08
6.11338e-08
5.17731e-08
5.45091e-08
5.69077e-08
5.69188e-08
5.71556e-08
5.78266e-08
5.52772e-08
5.72278e-08
5.62834e-08
5.96084e-08
5.92765e-08
6.20028e-08
6.22836e-08
6.36772e-08
6.52176e-08
6.49105e-08
6.41954e-08
6.35725e-08
5.98748e-08
5.99612e-08
5.06401e-08
5.3586e-08
5.60668e-08
5.5716e-08
5.60267e-08
5.67158e-08
5.38318e-08
5.59475e-08
5.49445e-08
5.85245e-08
5.80931e-08
6.09921e-08
6.12092e-08
6.2729e-08
6.45525e-08
6.4113e-08
6.34201e-08
6.27128e-08
5.85634e-08
5.87368e-08
4.95547e-08
5.27609e-08
5.53367e-08
5.45627e-08
5.49924e-08
5.57018e-08
5.24371e-08
5.47341e-08
5.36758e-08
5.75302e-08
5.69795e-08
6.00633e-08
6.01896e-08
6.18548e-08
6.40141e-08
6.34055e-08
6.27511e-08
6.19353e-08
5.72733e-08
5.75565e-08
4.84125e-08
5.19131e-08
5.45925e-08
5.335e-08
5.39393e-08
5.46782e-08
5.1004e-08
5.34867e-08
5.23885e-08
5.65134e-08
5.5835e-08
5.90937e-08
5.91082e-08
6.0947e-08
6.34749e-08
6.26594e-08
6.20462e-08
6.11025e-08
5.58932e-08
5.63007e-08
4.73133e-08
5.11797e-08
5.39579e-08
5.21661e-08
5.29945e-08
5.37601e-08
4.96139e-08
5.2309e-08
5.1176e-08
5.56021e-08
5.47667e-08
5.82189e-08
5.80718e-08
6.01104e-08
6.30654e-08
6.19804e-08
6.14386e-08
6.03259e-08
5.45003e-08
5.50778e-08
4.61305e-08
5.03775e-08
5.32756e-08
5.09052e-08
5.20044e-08
5.28147e-08
4.81769e-08
5.10692e-08
4.99204e-08
5.46262e-08
5.36348e-08
5.72638e-08
5.69429e-08
5.9224e-08
6.26532e-08
6.12575e-08
6.07756e-08
5.94865e-08
5.30192e-08
5.37628e-08
4.49641e-08
4.9707e-08
5.26805e-08
4.96151e-08
5.11184e-08
5.19441e-08
4.67247e-08
4.98778e-08
4.87133e-08
5.37444e-08
5.25365e-08
5.63707e-08
5.57865e-08
5.83766e-08
6.23473e-08
6.05326e-08
6.01675e-08
5.86309e-08
5.1444e-08
5.24381e-08
4.3664e-08
4.88621e-08
5.19576e-08
4.8223e-08
5.00979e-08
5.09697e-08
4.51936e-08
4.85534e-08
4.74063e-08
5.27024e-08
5.12997e-08
5.52891e-08
5.44428e-08
5.73684e-08
6.19766e-08
5.97339e-08
5.94275e-08
5.76577e-08
4.97743e-08
5.09782e-08
4.19326e-08
4.74814e-08
5.0642e-08
4.63398e-08
4.85697e-08
4.9417e-08
4.32762e-08
4.66554e-08
4.57132e-08
5.08779e-08
4.94597e-08
5.32231e-08
5.22775e-08
5.54743e-08
6.05223e-08
5.80501e-08
5.78846e-08
5.59158e-08
4.7581e-08
4.88815e-08
5.4595e-09
2.49015e-12
4.65957e-09
1.87737e-08
4.44793e-10
6.35176e-09
1.89886e-08
1.13657e-09
8.61443e-09
3.68909e-12
6.22674e-09
3.80768e-13
4.54346e-09
6.2407e-14
4.07951e-15
4.01597e-09
1.35898e-12
6.36576e-09
2.03931e-08
1.46808e-09
1.29874e-08
1.0173e-08
7.98846e-09
7.12113e-09
7.86233e-09
1.05603e-08
1.54243e-08
2.23032e-08
3.05838e-08
3.93295e-08
4.75366e-08
5.43639e-08
5.92174e-08
6.1706e-08
6.13712e-08
5.78315e-08
5.13157e-08
4.25241e-08
3.26024e-08
2.29504e-08
1.12636e-09
2.07445e-09
4.04295e-09
7.68149e-09
1.3093e-08
1.94985e-08
2.55416e-08
3.01364e-08
3.27473e-08
3.30195e-08
3.08679e-08
2.68341e-08
2.18546e-08
1.67424e-08
1.21726e-08
8.46411e-09
5.61637e-09
3.55256e-09
2.18567e-09
1.41981e-09
2.25491e-09
7.22585e-09
1.40441e-08
2.10306e-08
2.67816e-08
3.05369e-08
3.23435e-08
3.27204e-08
3.12601e-08
2.66628e-08
1.96113e-08
1.26421e-08
7.38608e-09
3.93143e-09
1.83441e-09
7.70802e-10
3.29118e-10
1.95718e-10
2.41297e-10
6.88196e-10
1.24215e-08
2.26334e-08
3.10779e-08
3.70021e-08
4.05926e-08
4.20747e-08
4.20536e-08
4.09323e-08
3.66423e-08
2.63848e-08
1.4673e-08
6.62923e-09
2.5838e-09
8.53113e-10
2.32687e-10
7.47014e-11
6.21891e-11
2.40434e-10
1.73168e-09
6.54082e-09
3.04476e-08
4.05003e-08
4.74871e-08
5.22726e-08
5.48681e-08
5.54441e-08
5.45066e-08
5.2375e-08
4.45213e-08
2.68922e-08
1.1281e-08
3.51715e-09
8.8139e-10
1.82905e-10
4.76012e-11
4.96973e-11
4.90932e-10
4.04589e-09
1.27225e-08
2.42746e-08
4.70872e-08
5.5079e-08
6.12446e-08
6.58907e-08
6.81263e-08
6.82215e-08
6.67333e-08
6.39553e-08
5.18519e-08
2.62419e-08
8.40889e-09
1.75873e-09
2.59674e-10
4.49359e-11
4.11223e-11
6.22877e-10
5.89767e-09
1.78544e-08
3.23212e-08
4.49288e-08
5.95862e-08
6.62681e-08
7.24032e-08
7.71796e-08
7.93608e-08
7.93379e-08
7.77104e-08
7.47212e-08
5.88061e-08
2.57984e-08
6.89759e-09
1.08387e-09
1.08826e-10
3.21128e-11
3.51157e-10
5.65132e-09
1.97351e-08
3.69175e-08
5.13489e-08
6.14058e-08
6.8826e-08
7.48068e-08
8.09863e-08
8.57992e-08
8.81178e-08
8.82511e-08
8.68436e-08
8.40811e-08
6.50933e-08
2.53796e-08
5.99841e-09
7.5755e-10
7.37792e-11
1.13384e-10
3.37528e-09
1.74217e-08
3.72873e-08
5.44144e-08
6.5982e-08
7.33489e-08
7.54617e-08
8.09704e-08
8.71155e-08
9.19152e-08
9.45358e-08
9.5096e-08
9.41866e-08
9.19025e-08
6.76978e-08
2.32863e-08
5.06575e-09
5.55634e-10
8.54664e-11
9.57218e-10
1.12404e-08
3.24826e-08
5.33796e-08
6.77564e-08
7.63286e-08
8.17717e-08
8.01968e-08
8.52739e-08
9.12438e-08
9.59495e-08
9.88487e-08
9.99726e-08
9.97613e-08
9.82316e-08
6.90873e-08
2.21546e-08
5.20543e-09
6.71785e-10
2.83792e-10
4.32154e-09
2.24295e-08
4.70275e-08
6.60903e-08
7.73808e-08
8.36574e-08
8.7789e-08
8.3388e-08
8.80458e-08
9.37686e-08
9.83489e-08
1.01414e-07
1.03141e-07
1.03774e-07
1.03242e-07
7.30174e-08
2.38782e-08
6.55913e-09
9.70308e-10
1.01217e-09
1.03953e-08
3.46201e-08
5.95976e-08
7.57843e-08
8.43442e-08
8.88512e-08
9.19775e-08
8.54174e-08
8.96733e-08
9.50911e-08
9.94985e-08
1.02585e-07
1.04736e-07
1.0615e-07
1.06696e-07
7.82192e-08
2.6841e-08
1.01252e-08
2.55283e-09
3.70974e-09
1.91642e-08
4.6582e-08
6.98432e-08
8.29721e-08
8.93007e-08
9.24449e-08
9.47877e-08
8.65583e-08
9.04425e-08
9.55387e-08
9.97567e-08
1.0277e-07
1.05104e-07
1.07084e-07
1.0874e-07
7.97714e-08
2.82908e-08
1.19964e-08
2.58396e-09
5.06407e-09
2.46318e-08
5.4056e-08
7.63491e-08
8.76662e-08
9.26093e-08
9.47986e-08
9.65419e-08
8.70309e-08
9.05793e-08
9.53467e-08
9.93534e-08
1.02189e-07
1.04491e-07
1.06574e-07
1.08933e-07
8.04789e-08
3.06113e-08
1.96266e-08
6.88352e-09
1.04098e-08
3.28688e-08
6.18679e-08
8.19478e-08
9.12079e-08
9.48668e-08
9.62373e-08
9.7492e-08
8.70107e-08
9.02613e-08
9.47175e-08
9.85139e-08
1.01126e-07
1.03289e-07
1.05203e-07
1.07705e-07
7.96694e-08
2.85669e-08
1.2436e-08
3.62161e-09
1.09038e-08
3.71822e-08
6.69665e-08
8.57954e-08
9.35786e-08
9.62689e-08
9.69816e-08
9.78443e-08
8.66086e-08
8.96032e-08
9.37769e-08
9.73618e-08
9.9707e-08
1.01632e-07
1.03073e-07
1.04937e-07
7.80282e-08
1.65478e-08
6.78027e-10
1.83483e-10
5.49329e-09
3.24901e-08
6.57794e-08
8.63923e-08
9.43248e-08
9.67461e-08
9.70914e-08
9.77039e-08
8.59363e-08
8.87017e-08
9.263e-08
9.60196e-08
9.81061e-08
9.98016e-08
1.00753e-07
1.02086e-07
9.65506e-08
4.5595e-08
1.25486e-08
1.32138e-08
3.62674e-08
6.71989e-08
8.70899e-08
9.5252e-08
9.70585e-08
9.73313e-08
9.69035e-08
9.72342e-08
8.50525e-08
8.7614e-08
9.13402e-08
9.45504e-08
9.63917e-08
9.78842e-08
9.84029e-08
9.94208e-08
9.792e-08
8.75511e-08
7.44117e-08
7.80793e-08
8.76825e-08
9.52268e-08
9.78685e-08
9.82111e-08
9.74166e-08
9.70097e-08
9.62756e-08
9.64707e-08
8.40193e-08
8.64021e-08
8.99644e-08
9.30114e-08
9.46358e-08
9.59728e-08
9.61646e-08
9.71158e-08
9.63422e-08
9.54238e-08
9.34064e-08
9.56571e-08
9.77504e-08
9.90805e-08
9.87094e-08
9.79839e-08
9.68482e-08
9.6346e-08
9.54228e-08
9.55191e-08
8.2869e-08
8.51106e-08
8.85354e-08
9.14302e-08
9.28603e-08
9.40732e-08
9.39898e-08
9.49325e-08
9.43533e-08
9.49343e-08
9.47056e-08
9.65475e-08
9.73974e-08
9.80288e-08
9.75952e-08
9.70024e-08
9.59345e-08
9.54647e-08
9.43881e-08
9.44196e-08
8.16202e-08
8.3768e-08
8.70818e-08
8.98317e-08
9.1092e-08
9.2213e-08
9.1894e-08
9.28828e-08
9.23743e-08
9.3435e-08
9.34534e-08
9.52124e-08
9.58614e-08
9.65355e-08
9.63301e-08
9.59272e-08
9.49251e-08
9.44799e-08
9.32364e-08
9.32129e-08
8.0296e-08
8.23928e-08
8.56204e-08
8.82289e-08
8.93385e-08
9.03892e-08
8.98513e-08
9.09045e-08
9.04151e-08
9.18248e-08
9.1918e-08
9.36903e-08
9.42525e-08
9.50062e-08
9.50061e-08
9.4772e-08
9.38316e-08
9.34092e-08
9.19879e-08
9.19029e-08
7.89386e-08
8.10094e-08
8.41712e-08
8.66358e-08
8.76135e-08
8.86138e-08
8.78655e-08
8.90041e-08
8.84979e-08
9.01896e-08
9.03017e-08
9.21465e-08
9.26882e-08
9.35438e-08
9.37191e-08
9.35989e-08
9.27119e-08
9.22968e-08
9.06789e-08
9.05262e-08
7.75554e-08
7.9623e-08
8.27398e-08
8.50534e-08
8.59155e-08
8.68787e-08
8.59163e-08
8.71488e-08
8.66042e-08
8.85623e-08
8.86762e-08
9.0631e-08
9.1159e-08
9.21038e-08
9.24455e-08
9.23954e-08
9.15514e-08
9.11281e-08
8.92949e-08
8.91044e-08
7.6169e-08
7.82545e-08
8.13464e-08
8.34965e-08
8.42603e-08
8.51969e-08
8.40131e-08
8.53545e-08
8.47501e-08
8.69598e-08
8.70536e-08
8.91473e-08
8.96802e-08
9.07215e-08
9.12269e-08
9.1217e-08
9.03861e-08
8.99477e-08
8.78679e-08
8.7669e-08
7.47701e-08
7.68977e-08
7.99845e-08
8.19544e-08
8.2635e-08
8.35542e-08
8.21349e-08
8.35934e-08
8.29188e-08
8.53838e-08
8.54481e-08
8.76987e-08
8.82327e-08
8.93671e-08
9.00417e-08
9.005e-08
8.922e-08
8.87625e-08
8.6408e-08
8.62127e-08
7.33821e-08
7.55781e-08
7.86823e-08
8.04472e-08
8.10622e-08
8.19732e-08
8.03021e-08
8.18896e-08
8.11368e-08
8.38656e-08
8.38838e-08
8.63084e-08
8.68416e-08
8.80727e-08
8.89336e-08
8.89352e-08
8.81019e-08
8.76163e-08
8.49485e-08
8.47652e-08
7.19927e-08
7.42832e-08
7.74232e-08
7.89541e-08
7.95254e-08
8.04357e-08
7.84904e-08
8.02169e-08
7.93786e-08
8.23756e-08
8.23331e-08
8.49419e-08
8.54701e-08
8.68028e-08
8.78686e-08
8.78428e-08
8.70061e-08
8.64828e-08
8.3465e-08
8.3307e-08
7.06296e-08
7.30489e-08
7.62458e-08
7.75062e-08
7.80541e-08
7.89693e-08
7.67203e-08
7.85968e-08
7.7672e-08
8.09503e-08
8.08395e-08
8.36448e-08
8.41564e-08
8.55978e-08
8.6896e-08
8.68199e-08
8.59848e-08
8.54123e-08
8.19994e-08
8.18753e-08
6.92504e-08
7.1835e-08
7.51091e-08
7.60543e-08
7.66052e-08
7.75333e-08
7.4956e-08
7.69938e-08
7.59835e-08
7.95511e-08
7.93577e-08
8.23657e-08
8.28479e-08
8.44088e-08
8.59687e-08
8.58103e-08
8.4982e-08
8.435e-08
8.04968e-08
8.042e-08
6.79212e-08
7.07115e-08
7.40817e-08
7.46595e-08
7.52468e-08
7.61915e-08
7.32422e-08
7.54549e-08
7.4358e-08
7.82311e-08
7.79402e-08
8.11628e-08
8.15986e-08
8.3293e-08
8.51586e-08
8.48925e-08
8.40807e-08
8.33732e-08
7.90217e-08
7.90099e-08
6.65548e-08
6.95974e-08
7.30755e-08
7.32316e-08
7.38936e-08
7.4861e-08
7.15047e-08
7.39067e-08
7.27374e-08
7.69237e-08
7.65252e-08
7.99622e-08
8.03294e-08
8.21766e-08
8.43798e-08
8.39684e-08
8.31798e-08
8.23735e-08
7.74737e-08
7.75463e-08
6.52429e-08
6.85979e-08
7.22019e-08
7.18638e-08
7.26526e-08
7.36469e-08
6.9828e-08
7.24374e-08
7.11987e-08
7.57225e-08
7.51936e-08
7.88595e-08
7.9126e-08
8.11481e-08
8.37516e-08
8.31534e-08
8.24068e-08
8.14748e-08
7.59516e-08
7.61331e-08
6.38798e-08
6.75915e-08
7.13335e-08
7.04425e-08
7.14055e-08
7.24386e-08
6.81173e-08
7.09433e-08
6.9653e-08
7.45179e-08
7.38484e-08
7.7737e-08
7.78773e-08
8.01091e-08
8.31562e-08
8.23264e-08
8.16248e-08
8.05413e-08
7.4343e-08
7.46494e-08
6.25591e-08
6.6712e-08
7.05903e-08
6.90504e-08
7.02793e-08
7.13506e-08
6.64529e-08
6.95253e-08
6.81899e-08
7.34311e-08
7.25882e-08
7.67197e-08
7.66759e-08
7.91476e-08
8.27075e-08
8.15755e-08
8.09532e-08
7.9671e-08
7.27131e-08
7.31952e-08
6.11743e-08
6.57942e-08
6.98349e-08
6.75994e-08
6.91348e-08
7.02656e-08
6.47564e-08
6.80655e-08
6.67065e-08
7.23114e-08
7.12941e-08
7.5659e-08
7.54149e-08
7.81823e-08
8.23205e-08
8.08352e-08
8.02804e-08
7.87852e-08
7.10179e-08
7.16721e-08
5.97806e-08
6.50024e-08
6.916e-08
6.60922e-08
6.80846e-08
6.92442e-08
6.3019e-08
6.66353e-08
6.52568e-08
7.1275e-08
7.00155e-08
7.46404e-08
7.40923e-08
7.72308e-08
8.20307e-08
8.00736e-08
7.96495e-08
7.78582e-08
6.91864e-08
7.01047e-08
5.82979e-08
6.40938e-08
6.84238e-08
6.45283e-08
6.69527e-08
6.81745e-08
6.12382e-08
6.51145e-08
6.37535e-08
7.01349e-08
6.86512e-08
7.34925e-08
7.26336e-08
7.61864e-08
8.17792e-08
7.93319e-08
7.89765e-08
7.68935e-08
6.73107e-08
6.84538e-08
5.63012e-08
6.25802e-08
6.70023e-08
6.23642e-08
6.52217e-08
6.64138e-08
5.89747e-08
6.29266e-08
6.17967e-08
6.81245e-08
6.66032e-08
7.12463e-08
7.02328e-08
7.41292e-08
8.0326e-08
7.75858e-08
7.73998e-08
7.50355e-08
6.47945e-08
6.60513e-08
1.17647e-08
2.11529e-11
1.0548e-08
3.01406e-08
2.32004e-09
1.35315e-08
3.04903e-08
4.46368e-09
1.67666e-08
3.72743e-11
1.31291e-08
1.99945e-12
1.04742e-08
2.27193e-13
4.3722e-15
9.67307e-09
1.75451e-11
1.37286e-08
3.28663e-08
5.44315e-09
7.7886e-09
5.92132e-09
4.59284e-09
4.20143e-09
4.96654e-09
7.23647e-09
1.12769e-08
1.70201e-08
2.39477e-08
3.12183e-08
3.79153e-08
4.32795e-08
4.68018e-08
4.81844e-08
4.71281e-08
4.34432e-08
3.74877e-08
3.00022e-08
2.20364e-08
1.47307e-08
6.07816e-10
1.31403e-09
2.9457e-09
6.16293e-09
1.10877e-08
1.70002e-08
2.25924e-08
2.68267e-08
2.91247e-08
2.90266e-08
2.64527e-08
2.21312e-08
1.71931e-08
1.24961e-08
8.58014e-09
5.61541e-09
3.48828e-09
2.05121e-09
1.1706e-09
7.22937e-10
2.17673e-09
7.36473e-09
1.45518e-08
2.19702e-08
2.82047e-08
3.23575e-08
3.44138e-08
3.48362e-08
3.29704e-08