/*--------------------------------*- C++ -*----------------------------------*\
| =========                 |                                                 |
| \\      /  F ield         | OpenFOAM: The Open Source CFD Toolbox           |
|  \\    /   O peration     | Version:  2.4.0                                 |
|   \\  /    A nd           | Web:      www.OpenFOAM.org                      |
|    \\/     M anipulation  |                                                 |
\*---------------------------------------------------------------------------*/
FoamFile
{
    version     2.0;
    format      ascii;
    class       volScalarField;
    location    "50";
    object      p;
}
// * * * * * * * * * * * * * * * * * * * * * * * * * * * * * * * * * * * * * //

dimensions      [0 2 -2 0 0 0 0];

internalField   nonuniform List<scalar> 
283312
(
-0.00709693
-0.00705761
-0.00713754
-0.00730995
-0.00750647
-0.00767601
-0.00782661
-0.00795842
-0.00810276
-0.00827464
-0.00848548
-0.00870699
-0.00889941
-0.0089935
-0.0089583
-0.00879566
-0.00850198
-0.00810466
-0.0076803
-0.00730665
0.00200058
0.00160325
0.00127117
0.00105059
0.000958353
0.000997782
0.00108557
0.00115671
0.00118832
0.00119966
0.00119034
0.00119812
0.00126179
0.00140668
0.00166249
0.00202071
0.00233841
0.00253277
0.00253546
0.00234935
-0.00220807
-0.00202444
-0.00179899
-0.00158633
-0.00143909
-0.0013891
-0.00142077
-0.00147174
-0.00157335
-0.00166918
-0.00177081
-0.00182156
-0.00182474
-0.00176356
-0.00175618
-0.00183347
-0.00198588
-0.00215352
-0.00228002
-0.00229471
0.00161638
0.00176296
0.00188148
0.00197907
0.00204383
0.00209764
0.00207126
0.00204589
0.00196189
0.00192081
0.00185763
0.00183112
0.00179514
0.00174356
0.00167379
0.00153627
0.00140908
0.00134773
0.0013673
0.00148166
-0.000627117
-0.000452769
-0.000351467
-0.000275042
-0.000283591
-0.000283198
-0.000332825
-0.000353561
-0.000442193
-0.00048123
-0.000591755
-0.000741525
-0.000963634
-0.00127123
-0.00160203
-0.00179455
-0.0017552
-0.00150609
-0.00118229
-0.000857014
0.00128851
0.00138822
0.00144908
0.0015144
0.00152436
0.00152378
0.0014465
0.00139988
0.0012725
0.00121913
0.00105012
0.000845341
0.000519451
0.000239556
7.48332e-05
0.000147587
0.000371259
0.000685487
0.000956335
0.00117242
-5.84118e-05
-2.02203e-05
-5.32428e-06
2.3513e-05
4.35233e-06
1.79279e-05
-3.25263e-05
-4.00919e-05
-0.000142776
-0.000187772
-0.000432079
-0.000777155
-0.00122177
-0.00153498
-0.00155265
-0.00125043
-0.000849574
-0.000474715
-0.000237932
-9.56672e-05
0.00084344
0.000900744
0.000940131
0.000993547
0.000975351
0.00096033
0.000869588
0.000812714
0.000669988
0.000586386
0.000307581
-5.16451e-05
-0.000467396
-0.000575697
-0.000408154
-5.14261e-05
0.000296461
0.000572739
0.000722174
0.000816542
8.29114e-05
9.48918e-05
9.84392e-05
0.000127305
0.000119199
0.00013235
7.91685e-05
6.14288e-05
-4.69476e-05
-0.000123191
-0.000439999
-0.000875481
-0.00126453
-0.00123312
-0.000919045
-0.000517687
-0.000205052
1.76714e-06
7.88572e-05
0.000110578
0.000508546
0.000547883
0.000575601
0.000621264
0.000603
0.00059152
0.00050889
0.000449218
0.000318972
0.000218182
-9.11951e-05
-0.000481899
-0.000708919
-0.00057308
-0.000252899
6.71429e-05
0.000288978
0.000432288
0.000481666
0.000516719
0.000109467
0.000120592
0.000126788
0.000164271
0.000161368
0.000179343
0.000132089
0.00011626
2.6035e-05
-4.03267e-05
-0.00033942
-0.000791099
-0.000936279
-0.000723594
-0.000394804
-0.000122066
4.15907e-05
0.000134652
0.000144294
0.000147445
0.000301049
0.000328578
0.000347919
0.000389978
0.000380595
0.000384108
0.000321902
0.000284289
0.00017917
0.000112496
-0.000161329
-0.000467876
-0.000530628
-0.000297154
-4.66172e-05
0.00014587
0.000248497
0.000309939
0.000310658
0.000323204
0.000100789
0.000114123
0.0001223
0.00016515
0.000168323
0.000199006
0.000169793
0.000182986
0.000124939
0.000148057
-0.000115202
-0.000501087
-0.000526075
-0.000328277
-0.000114631
3.61084e-05
0.000109998
0.000150335
0.000135062
0.000135894
0.000174261
0.000194407
0.000206413
0.000247251
0.000243585
0.000263025
0.000224452
0.00021694
0.000153867
0.000151894
-5.30274e-05
-0.000236926
-0.00024698
-7.48166e-05
5.91846e-05
0.000155296
0.000192148
0.000215794
0.000195534
0.000202087
7.76615e-05
9.19595e-05
9.7953e-05
0.000137671
0.000139432
0.00017801
0.000165501
0.000212617
0.000197558
0.000350339
0.000157669
-0.000201074
-0.000243004
-0.000131798
-2.09578e-05
6.21216e-05
9.66185e-05
0.000121286
0.000101807
0.000109029
0.000104396
0.000119859
0.000123285
0.000155193
0.000145966
0.0001707
0.000145955
0.000164065
0.000128576
0.000184182
0.000187988
-1.38461e-05
-6.72076e-05
-5.8456e-06
5.2057e-05
0.000105831
0.000122765
0.000141947
0.000121892
0.00013347
6.03766e-05
7.34096e-05
7.30492e-05
0.000102137
9.42269e-05
0.000129642
0.000122762
0.00017565
0.000162854
0.000231443
0.000114283
-7.73282e-06
-2.74673e-05
-7.51976e-07
2.72561e-05
5.8541e-05
6.56746e-05
8.73498e-05
7.23189e-05
8.90209e-05
6.86488e-05
7.98983e-05
7.58095e-05
9.8296e-05
8.19659e-05
0.000105658
8.7008e-05
0.000117261
0.000102375
0.000136794
0.000143587
0.00011501
9.33778e-05
9.97022e-05
8.82318e-05
9.73016e-05
8.54345e-05
9.92012e-05
8.03652e-05
9.81746e-05
4.41923e-05
5.42912e-05
4.90739e-05
7.07374e-05
5.71069e-05
8.76597e-05
8.08231e-05
0.000130413
0.000126798
0.000176456
0.000123572
8.28613e-05
5.59899e-05
5.38794e-05
4.07367e-05
5.18572e-05
4.32434e-05
6.34895e-05
4.96635e-05
7.23473e-05
4.44193e-05
5.27785e-05
4.54136e-05
6.37493e-05
4.62815e-05
6.95829e-05
5.28724e-05
8.58299e-05
7.68804e-05
0.00011326
0.000116307
0.000129774
0.000109892
0.000109637
8.07614e-05
8.10393e-05
5.96201e-05
7.18476e-05
5.25537e-05
7.44389e-05
2.29198e-05
3.08819e-05
2.41102e-05
4.32061e-05
2.90425e-05
5.6847e-05
4.74837e-05
8.91039e-05
8.49766e-05
0.0001254
9.42143e-05
8.20585e-05
5.31246e-05
5.23342e-05
3.05027e-05
4.05213e-05
2.47646e-05
4.22202e-05
2.65443e-05
5.14395e-05
1.94679e-05
2.63214e-05
1.89523e-05
3.65936e-05
2.11065e-05
4.47239e-05
2.77058e-05
5.74035e-05
4.52606e-05
7.81063e-05
7.22745e-05
9.66161e-05
7.89123e-05
8.598e-05
5.82819e-05
6.16332e-05
3.6026e-05
4.66859e-05
2.54679e-05
4.95306e-05
-3.30185e-06
3.34889e-06
-2.90691e-06
1.52405e-05
1.74836e-06
2.72653e-05
1.43619e-05
4.65489e-05
3.54496e-05
6.66239e-05
4.22136e-05
4.64094e-05
2.22879e-05
3.29976e-05
1.31371e-05
2.58329e-05
5.264e-06
1.9232e-05
-3.16287e-07
2.50765e-05
-3.94217e-06
3.29751e-06
-3.07751e-06
1.33987e-05
-8.74985e-07
2.17424e-05
4.20333e-06
2.98461e-05
1.22746e-05
4.03025e-05
2.71732e-05
5.5552e-05
4.07776e-05
5.81506e-05
3.53498e-05
4.35307e-05
1.58645e-05
2.41633e-05
-4.04058e-07
2.5098e-05
-2.79317e-05
-2.02426e-05
-2.52528e-05
-8.98497e-06
-2.32888e-05
-8.37538e-07
-1.57424e-05
1.0942e-05
-4.99716e-06
2.16184e-05
-8.82888e-07
1.48769e-05
-4.38819e-06
1.64739e-05
-1.09913e-06
1.40918e-05
-1.10984e-05
-1.65464e-06
-2.57681e-05
-1.70629e-07
-2.7792e-05
-1.8126e-05
-2.32088e-05
-8.66231e-06
-2.3002e-05
-2.13003e-06
-1.90164e-05
7.92262e-06
-1.11548e-05
1.63831e-05
-1.94384e-06
2.7504e-05
1.11717e-05
3.5017e-05
1.38964e-05
2.50953e-05
-5.33992e-06
1.70308e-07
-2.74857e-05
5.12035e-07
-5.70495e-05
-4.72211e-05
-5.0336e-05
-3.57811e-05
-5.12497e-05
-3.13382e-05
-4.50033e-05
-1.78736e-05
-3.3813e-05
-6.15663e-06
-2.91396e-05
-7.1314e-06
-2.77613e-05
-3.51106e-06
-2.29241e-05
-8.37129e-06
-3.75106e-05
-3.00714e-05
-5.66344e-05
-2.92284e-05
-5.40767e-05
-4.14728e-05
-4.52127e-05
-3.21276e-05
-4.67221e-05
-2.77186e-05
-4.22936e-05
-9.26904e-06
-2.74973e-05
4.71938e-06
-1.98549e-05
1.00458e-05
-1.44261e-05
1.02772e-05
-1.55191e-05
-5.33322e-06
-3.65489e-05
-2.95537e-05
-5.78371e-05
-2.56256e-05
-7.77498e-05
-6.56319e-05
-6.8255e-05
-5.56482e-05
-7.25606e-05
-5.35865e-05
-6.55997e-05
-3.4307e-05
-4.67868e-05
-1.61388e-05
-4.08099e-05
-1.67565e-05
-4.36169e-05
-2.07645e-05
-4.78441e-05
-3.40785e-05
-6.35843e-05
-5.43421e-05
-8.17349e-05
-5.1476e-05
-6.44956e-05
-4.60262e-05
-5.17943e-05
-4.1097e-05
-5.44263e-05
-3.82208e-05
-5.12463e-05
-1.08922e-05
-2.83207e-05
1.1922e-05
-2.03092e-05
1.12212e-05
-2.50559e-05
-7.25483e-07
-3.29391e-05
-2.25434e-05
-5.10306e-05
-4.29938e-05
-7.30841e-05
-3.46294e-05
-7.90948e-05
-6.43987e-05
-6.80063e-05
-5.68617e-05
-7.54058e-05
-5.76696e-05
-6.83027e-05
-3.31618e-05
-4.2118e-05
-5.90437e-06
-3.43492e-05
-9.73342e-06
-4.53562e-05
-2.21818e-05
-5.26633e-05
-3.60955e-05
-6.65192e-05
-5.74403e-05
-8.69298e-05
-5.41077e-05
-6.70539e-05
-4.10132e-05
-5.11393e-05
-4.04099e-05
-5.18198e-05
-3.9824e-05
-5.21253e-05
-4.40168e-06
-2.55027e-05
2.54221e-05
-1.73866e-05
1.75396e-05
-3.22841e-05
-1.8943e-07
-3.51346e-05
-2.14927e-05
-4.8863e-05
-4.39827e-05
-7.64018e-05
-3.15112e-05
-8.51946e-05
-6.73891e-05
-7.20199e-05
-6.04895e-05
-7.91844e-05
-6.27209e-05
-7.29544e-05
-3.56591e-05
-4.4889e-05
-3.62931e-06
-3.83449e-05
-1.31818e-05
-5.75164e-05
-2.86789e-05
-5.89078e-05
-3.77432e-05
-6.91005e-05
-6.07246e-05
-9.16276e-05
-5.56158e-05
-8.81863e-05
-5.25078e-05
-6.93483e-05
-5.38474e-05
-6.17416e-05
-5.61749e-05
-6.71777e-05
-1.32593e-05
-4.68082e-05
1.81231e-05
-4.14329e-05
4.14229e-06
-6.44305e-05
-1.95497e-05
-6.09036e-05
-4.29397e-05
-6.52036e-05
-6.00536e-05
-8.97746e-05
-3.84994e-05
-0.000109903
-8.87161e-05
-9.57662e-05
-8.12714e-05
-9.71145e-05
-8.2196e-05
-9.38699e-05
-5.579e-05
-7.16269e-05
-2.56443e-05
-6.84827e-05
-3.90902e-05
-9.74908e-05
-6.56245e-05
-0.000101092
-7.35014e-05
-9.71452e-05
-8.09011e-05
-0.000108497
-6.86968e-05
-0.000128121
-7.58385e-05
-0.000107934
-8.3831e-05
-8.38573e-05
-8.96793e-05
-9.79012e-05
-3.91788e-05
-9.42242e-05
-7.65876e-06
-9.04507e-05
-2.2348e-05
-0.000123375
-6.7578e-05
-0.000129232
-0.000101592
-0.000102596
-9.14823e-05
-0.000114346
-5.37128e-05
-0.000143813
-0.000111984
-0.000129364
-0.000109644
-0.000117815
-0.000111295
-0.000124676
-8.16683e-05
-0.000116482
-5.51126e-05
-0.000112811
-6.54788e-05
-0.000151279
-0.000119541
-0.000171544
-0.000130025
-0.00013104
-0.000103641
-0.000127736
-8.14272e-05
-0.00016618
-8.59415e-05
-0.000144786
-0.00010776
-9.99873e-05
-0.000125967
-0.000127921
-6.20881e-05
-0.000144455
-2.32226e-05
-0.000137765
-3.01238e-05
-0.000177673
-0.000109419
-0.000210943
-0.000152761
-0.000124016
-0.000110545
-0.000127667
-5.58173e-05
-0.000171142
-0.000101397
-0.00015163
-0.000121138
-0.00011175
-0.000137043
-0.000145336
-8.10411e-05
-0.000157429
-4.90948e-05
-0.000146231
-4.96194e-05
-0.000185617
-0.000137031
-0.000227623
-0.000153841
-0.000123385
-0.000101365
-0.000126092
-6.20756e-05
-0.000176613
-3.25009e-05
-0.000148349
-9.66188e-05
-6.48316e-05
-0.000136378
-0.000129284
-3.14527e-05
-0.000159216
2.94987e-05
-0.000148673
3.551e-05
-0.000187282
-7.4472e-05
-0.000254876
-0.000132773
-8.14617e-05
-8.38112e-05
-0.000102813
3.98769e-06
-0.0111244
-0.0106812
-0.0103143
-0.010069
-0.00994257
-0.00993559
-0.0100738
-0.0103334
-0.0107096
-0.0111761
-0.0117119
-0.0122604
-0.0127564
-0.0131095
-0.0132763
-0.0132619
-0.0130622
-0.0126888
-0.0121975
-0.0116427
0.00246948
0.00245107
0.00234149
0.0021765
0.00200437
0.00188133
0.00176167
0.00161622
0.00142482
0.00120315
0.000935991
0.000661579
0.000437725
0.000329062
0.000413508
0.000731184
0.00116252
0.00163079
0.00204291
0.00234146
-0.00218656
-0.00190532
-0.00169924
-0.00157346
-0.00156023
-0.00166432
-0.00185448
-0.00206818
-0.00236192
-0.00269019
-0.00309996
-0.00351247
-0.00386481
-0.00404043
-0.00408539
-0.0039662
-0.003697
-0.00331923
-0.00291545
-0.00252064
0.00309512
0.00316486
0.0031883
0.00320125
0.00318483
0.00315328
0.00302337
0.00287857
0.00262492
0.00235513
0.00193989
0.0015157
0.00117292
0.00106155
0.00125364
0.00160395
0.00204203
0.00245394
0.0027617
0.00298355
-0.000250768
-0.000105843
-3.67716e-05
1.21777e-05
-4.95241e-05
-0.000101916
-0.000243522
-0.000370095
-0.000630915
-0.000917451
-0.00144488
-0.00202091
-0.0024662
-0.00267494
-0.00261246
-0.00229129
-0.001802
-0.00125953
-0.000806461
-0.000455763
0.00221684
0.00231693
0.00237742
0.00244848
0.0024266
0.00237738
0.0021996
0.00204149
0.00172752
0.00141194
0.000784681
0.000199734
-0.000202318
-0.000169221
0.000143601
0.000658909
0.00116119
0.00160504
0.00190806
0.00211871
0.000263286
0.00031
0.000331404
0.000367705
0.000323457
0.000299368
0.000157248
5.30034e-05
-0.00022939
-0.000536914
-0.0012729
-0.0019525
-0.00236287
-0.00230718
-0.00188919
-0.00124891
-0.00065571
-0.000183183
8.59392e-05
0.000234138
0.00143544
0.00152085
0.0015835
0.00166426
0.00161718
0.00155661
0.0013581
0.00118966
0.000856406
0.000506965
-0.000256542
-0.000853721
-0.00110631
-0.000819637
-0.000294925
0.000286823
0.000764501
0.00111791
0.0012986
0.00140629
0.000343667
0.00037299
0.000394029
0.00044837
0.000420659
0.000401941
0.000256083
0.000142812
-0.000133262
-0.000456852
-0.00124733
-0.00185086
-0.00202501
-0.00162706
-0.00102814
-0.000450006
-2.24476e-05
0.000255466
0.000352967
0.000384117
0.000880803
0.000947611
0.00100313
0.0010792
0.00104495
0.000998374
0.000815994
0.000660013
0.000359084
3.20543e-05
-0.000708548
-0.00117568
-0.00113367
-0.000693211
-0.000167505
0.000281628
0.000591779
0.000795268
0.000860182
0.000895862
0.000302286
0.000332192
0.000359599
0.000432453
0.000421792
0.000422267
0.000297601
0.000209716
-2.15034e-05
-0.000271948
-0.000956397
-0.00144626
-0.00132527
-0.000875351
-0.000389036
-1.56168e-05
0.000221984
0.000358833
0.000367981
0.000358941
0.000530285
0.000580996
0.000624874
0.000704826
0.000689872
0.000679273
0.000545819
0.00043803
0.000215076
-6.9796e-06
-0.000600165
-0.000845873
-0.000681193
-0.000276872
7.25946e-05
0.000330685
0.000483133
0.000572796
0.00056555
0.000567039
0.000233593
0.000264979
0.000293323
0.000376937
0.000383983
0.000419837
0.000343207
0.000324324
0.000180968
0.000118062
-0.00039876
-0.000742408
-0.000590237
-0.000295546
-2.06646e-05
0.000171652
0.000278664
0.000334282
0.000302083
0.000287559
0.000309139
0.000348144
0.000378929
0.000458763
0.000458949
0.000487084
0.000409242
0.000377169
0.000247301
0.000185799
-0.000180868
-0.000261153
-0.000155612
6.39438e-05
0.000214539
0.000323968
0.000373157
0.000400993
0.000359657
0.000353225
0.000162394
0.000192944
0.000213134
0.000289814
0.000298308
0.000358517
0.000327379
0.000385292
0.000340804
0.000514442
0.000233929
-0.000123523
-0.000123078
-1.81239e-05
9.23444e-05
0.000180544
0.000223345
0.000251617
0.000212457
0.000209725
0.000185571
0.000216213
0.000228901
0.000290615
0.000282161
0.000325953
0.000285098
0.00031325
0.000255178
0.000344417
0.000398937
0.000149804
7.78566e-05
0.000117586
0.000165639
0.000218555
0.000237714
0.00025981
0.000222326
0.000228561
0.000119173
0.000145556
0.000149872
0.000203647
0.000194786
0.000254375
0.000243877
0.000327087
0.000307085
0.000421021
0.000285374
0.000106078
7.22615e-05
7.90044e-05
0.000101601
0.000132567
0.000141056
0.000169603
0.0001427
0.000159712
0.000124829
0.000147212
0.000143289
0.000183893
0.000160958
0.000203789
0.000179827
0.000235073
0.000217623
0.000280137
0.000295048
0.000236732
0.000205364
0.000196133
0.000170684
0.000173245
0.000154867
0.000173714
0.000144054
0.000165221
8.86511e-05
0.00010823
0.000100892
0.000137716
0.000117333
0.000168973
0.00016341
0.000246567
0.000249783
0.00032995
0.000259605
0.00018738
0.000149393
0.000128788
0.000100218
0.000104732
8.91018e-05
0.000117045
9.58213e-05
0.000125651
8.49548e-05
0.000100893
8.9575e-05
0.00012006
9.40241e-05
0.00013459
0.000115867
0.000174366
0.000172917
0.000232672
0.000240973
0.000246308
0.000219522
0.000202694
0.000152079
0.000141168
0.000105986
0.00012194
9.36936e-05
0.000123163
5.20437e-05
6.65094e-05
5.61639e-05
8.69257e-05
6.60596e-05
0.000112159
0.000103856
0.000171368
0.000178105
0.000240404
0.000204591
0.000176164
0.000137669
0.0001205
8.03843e-05
8.34394e-05
5.4562e-05
7.64551e-05
5.31127e-05
8.67899e-05
4.22944e-05
5.43618e-05
4.41976e-05
7.25387e-05
5.06852e-05
9.00773e-05
7.09477e-05
0.000117237
0.00011248
0.000159467
0.000160881
0.000183532
0.000163823
0.000160188
0.00011486
0.000110067
6.62769e-05
7.71272e-05
4.56076e-05
7.74798e-05
7.88965e-06
1.91821e-05
1.21523e-05
4.08009e-05
2.25492e-05
6.37188e-05
5.01643e-05
9.51958e-05
9.13286e-05
0.000130591
0.000108456
0.000103173
7.81797e-05
8.25296e-05
5.14327e-05
6.10087e-05
2.29436e-05
3.64309e-05
6.22862e-06
3.88548e-05
2.91763e-06
1.47491e-05
9.68918e-06
3.55336e-05
1.67033e-05
5.27692e-05
3.3104e-05
6.42984e-05
5.13813e-05
8.01538e-05
7.56593e-05
0.000102713
9.51664e-05
0.000111501
8.00058e-05
8.47249e-05
3.5558e-05
3.91368e-05
1.03284e-06
3.23531e-05
-3.16547e-05
-1.92749e-05
-2.00015e-05
4.8088e-06
-1.38379e-05
2.11039e-05
5.88614e-06
3.51273e-05
2.55876e-05
4.72085e-05
3.19255e-05
3.96988e-05
2.95555e-05
5.20507e-05
3.05265e-05
4.57075e-05
-1.63494e-06
1.55617e-06
-3.69837e-05
-6.73984e-06
-3.55771e-05
-2.0823e-05
-1.8653e-05
3.15397e-06
-1.56446e-05
1.64381e-05
3.2477e-07
2.71118e-05
1.61081e-05
3.36786e-05
2.68222e-05
4.99029e-05
4.66826e-05
7.25436e-05
4.7768e-05
5.76754e-05
1.51456e-06
-1.8966e-06
-4.53778e-05
-1.3209e-05
-7.57636e-05
-6.11849e-05
-5.31492e-05
-3.22957e-05
-5.28766e-05
-2.21831e-05
-3.18354e-05
-5.95268e-06
-8.59074e-06
4.93231e-06
-5.89795e-06
2.4595e-06
-5.39432e-06
1.83661e-05
-4.0224e-06
9.70245e-06
-4.60778e-05
-4.67954e-05
-8.84202e-05
-5.76983e-05
-7.14194e-05
-5.40778e-05
-4.34621e-05
-2.55135e-05
-4.56695e-05
-1.5807e-05
-2.3857e-05
8.69547e-06
9.03466e-06
2.3853e-05
1.43128e-05
2.70326e-05
1.48811e-05
3.45498e-05
2.44363e-06
9.46521e-06
-5.01659e-05
-5.04297e-05
-9.3199e-05
-5.71221e-05
-9.45955e-05
-7.88296e-05
-6.36139e-05
-4.78106e-05
-7.16622e-05
-4.08578e-05
-4.32602e-05
-1.32518e-05
1.43772e-06
9.96644e-06
3.12669e-06
8.41893e-07
-1.46258e-05
-2.90594e-06
-3.81007e-05
-2.70328e-05
-8.51399e-05
-8.09246e-05
-0.000121664
-8.83671e-05
-6.557e-05
-4.33667e-05
-2.86731e-05
-1.65449e-05
-3.71279e-05
-8.35464e-06
-9.53175e-06
3.06809e-05
4.71994e-05
6.29809e-05
5.04194e-05
4.89977e-05
2.17776e-05
2.92589e-05
-1.30672e-05
-5.99093e-06
-6.41905e-05
-6.00688e-05
-0.000103348
-6.06273e-05
-6.89403e-05
-5.40874e-05
-3.27981e-05
-2.13693e-05
-4.97342e-05
-1.65989e-05
-1.32299e-05
1.89105e-05
5.42479e-05
5.9199e-05
5.49821e-05
3.46397e-05
8.65687e-06
9.23785e-06
-2.99082e-05
-1.404e-05
-7.68296e-05
-6.97305e-05
-0.000111243
-7.61804e-05
-4.01296e-05
-1.48589e-05
3.38833e-06
1.3993e-05
-7.45322e-06
2.20369e-05
2.48423e-05
6.89292e-05
9.74251e-05
0.000113284
9.5622e-05
7.66113e-05
3.42742e-05
4.03857e-05
-2.30471e-06
1.17721e-05
-4.98782e-05
-4.50314e-05
-8.82954e-05
-3.9786e-05
-5.49833e-05
-4.55703e-05
-1.45903e-05
-3.26062e-06
-3.49327e-05
5.08578e-06
1.07414e-05
3.75634e-05
8.85464e-05
8.2694e-05
7.96835e-05
3.57452e-05
1.62848e-06
-3.31202e-06
-3.82451e-05
-1.30724e-05
-8.16705e-05
-6.65277e-05
-0.000104217
-6.75762e-05
-5.41404e-05
-3.02543e-05
-6.71796e-06
1.02396e-05
-1.10133e-05
2.32546e-05
2.76541e-05
6.67791e-05
9.63349e-05
0.000107657
8.05861e-05
4.78341e-05
-1.45732e-05
-1.00697e-05
-5.81209e-05
-3.35085e-05
-9.16074e-05
-6.99697e-05
-0.000100852
-4.8167e-05
-8.49291e-05
-8.84546e-05
-4.52539e-05
-2.96717e-05
-6.14375e-05
-6.69975e-06
-4.96288e-06
6.56869e-06
6.64218e-05
3.98878e-05
4.13832e-05
-2.6593e-05
-7.57976e-05
-0.000102654
-0.000144837
-0.000104832
-0.000162223
-0.00011245
-0.000133633
-9.58983e-05
-0.000107262
-8.57268e-05
-6.19495e-05
-3.47729e-05
-5.29254e-05
-8.96832e-06
-6.23112e-06
1.60801e-05
4.07587e-05
4.63544e-05
1.15601e-05
-2.59528e-05
-0.000125006
-0.000144201
-0.000220965
-0.000173011
-0.000200733
-0.000137753
-0.000146661
-8.82511e-05
-0.000135161
-0.000153506
-0.000100821
-8.05738e-05
-0.00011177
-3.85131e-05
-4.63813e-05
-5.51264e-05
7.39286e-06
-3.78928e-05
-2.74184e-05
-0.000108723
-0.000185719
-0.000261172
-0.000330148
-0.000255464
-0.000280351
-0.000176727
-0.000180211
-0.000141813
-0.000156906
-0.000139914
-0.000115777
-7.93498e-05
-0.000106827
-4.44982e-05
-4.6809e-05
-5.19628e-05
-1.83638e-05
-2.07593e-05
-5.34405e-05
-8.77485e-05
-0.000225763
-0.000293887
-0.000423055
-0.00031015
-0.00030719
-0.00019351
-0.000186543
-0.000128085
-0.000162239
-0.00017954
-0.000126853
-0.000103596
-0.000138469
-5.39603e-05
-7.10665e-05
-9.37676e-05
-2.88736e-05
-7.59765e-05
-6.34253e-05
-0.000136497
-0.000244636
-0.000372638
-0.000489964
-0.000339953
-0.000345379
-0.000198193
-0.000197444
-0.000154114
-0.000149682
-0.000137813
-0.0001035
-7.52363e-05
-0.000129026
-2.68259e-05
-4.87525e-05
-8.39409e-05
-1.06449e-06
-2.52554e-05
-4.27836e-05
-7.6804e-05
-0.000231636
-0.000351429
-0.000548585
-0.000315624
-0.000341814
-0.000177002
-0.000180648
-0.000119039
-0.0136857
-0.0130784
-0.0125682
-0.0122117
-0.0120183
-0.0120055
-0.0121891
-0.012541
-0.0130481
-0.0136736
-0.0143824
-0.0150996
-0.0157431
-0.0162057
-0.0164283
-0.0164156
-0.0161666
-0.0156991
-0.0150768
-0.0143692
0.00203847
0.00213091
0.00209098
0.00195754
0.00178258
0.0016273
0.00143308
0.00119014
0.000877584
0.000517937
0.000100598
-0.000322922
-0.000672689
-0.000861952
-0.00079579
-0.000430185
0.000108016
0.000724453
0.0013042
0.00176632
-0.00265079
-0.00228141
-0.00203172
-0.00189956
-0.0019213
-0.00207969
-0.00234625
-0.00266067
-0.00308236
-0.00356291
-0.00415016
-0.00474041
-0.00523609
-0.00548424
-0.00552161
-0.00529972
-0.00485799
-0.00427927
-0.00367863
-0.00311367
0.00351569
0.00361845
0.00364968
0.00365581
0.00361167
0.00352901
0.00332793
0.00309186
0.00271241
0.0022886
0.00167865
0.00106604
0.000599237
0.000479559
0.000787288
0.00131813
0.00196227
0.00256409
0.00301962
0.00334181
-0.000115008
5.89066e-05
0.000138535
0.000182866
9.51129e-05
6.58418e-06
-0.000201069
-0.000412445
-0.00080311
-0.0012568
-0.00201219
-0.00279658
-0.00334659
-0.00353403
-0.00332162
-0.00278489
-0.00208273
-0.00136826
-0.000794279
-0.000365468
0.00264496
0.00277764
0.00285596
0.00293596
0.00288939
0.00280254
0.00255027
0.00230226
0.00184991
0.001358
0.000479815
-0.00030151
-0.000759569
-0.000610691
-0.000109826
0.000610666
0.00128342
0.00185405
0.00224083
0.00250859
0.000473467
0.00054952
0.000589129
0.000636672
0.000575876
0.000519679
0.000307043
0.000119927
-0.000300199
-0.000788948
-0.00179989
-0.00266473
-0.00309794
-0.00289252
-0.00226598
-0.00142983
-0.000683644
-0.000105084
0.00022901
0.000419126
0.00174514
0.00186463
0.00195416
0.0020524
0.00198929
0.00189227
0.00161644
0.00136146
0.000887359
0.000356166
-0.000684105
-0.00143176
-0.00164462
-0.00119327
-0.000474246
0.00027292
0.0008742
0.00131572
0.00154878
0.00169078
0.000519424
0.000578611
0.000623824
0.000702192
0.000664618
0.00061856
0.000402022
0.000214697
-0.000194962
-0.000690426
-0.00175472
-0.00248636
-0.00258362
-0.00201085
-0.00123309
-0.000511822
1.96755e-05
0.000369401
0.00050025
0.000550247
0.0010844
0.00118181
0.0012637
0.0013687
0.00132127
0.0012476
0.000996363
0.000766057
0.000346078
-0.00013757
-0.00113477
-0.00168129
-0.00154198
-0.000942496
-0.000270167
0.000294355
0.000694434
0.000957335
0.00104484
0.00109261
0.000434671
0.000489526
0.000540425
0.000643351
0.000625959
0.000609697
0.000426214
0.000283284
-4.61523e-05
-0.000424058
-0.00134174
-0.00189065
-0.00166525
-0.00108112
-0.000476339
-7.59577e-06
0.000300681
0.000482819
0.000501128
0.000493991
0.000664431
0.000738503
0.000804149
0.000913829
0.00089307
0.000870504
0.00068444
0.000535749
0.000224121
-9.61513e-05
-0.000884654
-0.00114687
-0.000885144
-0.000377457
5.56464e-05
0.000384361
0.000589606
0.000713014
0.000706882
0.000706968
0.000329566
0.000380446
0.000426561
0.000541279
0.000546789
0.000582289
0.00046813
0.000428385
0.000224064
0.000107079
-0.000574019
-0.000930878
-0.000705012
-0.000345448
-1.55202e-05
0.000226099
0.000370825
0.000450464
0.000412587
0.000393611
0.00039587
0.000452254
0.000496987
0.0006065
0.000606169
0.000640195
0.000533442
0.000491326
0.000317511
0.000225224
-0.000253194
-0.000317429
-0.000167162
8.77553e-05
0.000263267
0.000400496
0.0004709
0.000513903
0.000462315
0.000451499
0.000226668
0.000272565
0.000302698
0.000408212
0.000418547
0.000494542
0.000447517
0.000516866
0.000449863
0.000638714
0.000280044
-0.000108174
-8.83021e-05
2.3027e-05
0.00014236
0.000246897
0.000302219
0.000342028
0.000291453
0.000286284
0.00024008
0.000284549
0.000302643
0.000389728
0.00038128
0.000443721
0.000391259
0.000434928
0.000359986
0.000472807
0.000514133
0.000222935
0.000142263
0.000179588
0.000226887
0.000287267
0.000309323
0.000339079
0.000289138
0.00029543
0.000161391
0.000200667
0.000206735
0.000283078
0.000273338
0.000356203
0.000341505
0.000451707
0.000423243
0.000567276
0.000400594
0.000183822
0.00013931
0.00013834
0.000155286
0.000189206
0.000195114
0.000230881
0.000192805
0.000213586
0.000160184
0.000194287
0.000188463
0.000247946
0.000220802
0.000286118
0.000257849
0.000339519
0.000315729
0.000403365
0.000406815
0.000328775
0.000285387
0.000269891
0.000231466
0.000231262
0.000202541
0.000226184
0.000184722
0.000212019
0.000116252
0.00014679
0.000135242
0.000188927
0.000163007
0.00023814
0.000231015
0.00034514
0.000346845
0.00045401
0.000364854
0.000276351
0.000225401
0.000197128
0.000152645
0.000153342
0.000124524
0.000157717
0.00012527
0.000163851
0.000106274
0.000132286
0.000114996
0.000160567
0.000127062
0.000189275
0.000166754
0.000253058
0.000250448
0.000335121
0.000336194
0.000339836
0.000301927
0.000279321
0.000208381
0.000191231
0.00013799
0.000157079
0.000116001
0.000154972
6.54616e-05
8.95115e-05
7.28618e-05
0.000118224
8.97533e-05
0.000157379
0.000145587
0.000240745
0.000248301
0.000335476
0.00028998
0.000259127
0.000208284
0.000186378
0.000126584
0.000125869
7.79971e-05
0.000103047
6.63086e-05
0.000110195
4.91834e-05
7.02927e-05
5.41958e-05
9.66478e-05
6.67458e-05
0.00012618
0.000101264
0.000170502
0.000165018
0.000233676
0.000231605
0.000260591
0.000232057
0.00022732
0.000162387
0.000154161
8.81618e-05
9.99438e-05
5.27318e-05
9.42479e-05
7.43694e-06
2.76182e-05
1.58763e-05
5.85326e-05
3.25108e-05
9.32107e-05
7.36003e-05
0.000138903
0.000134043
0.000192009
0.00016525
0.000164624
0.000132008
0.000139201
9.1958e-05
0.000101343
4.0254e-05
5.36374e-05
6.14894e-06
4.76151e-05
-2.77126e-06
1.80164e-05
9.84318e-06
4.93517e-05
2.26732e-05
7.70046e-05
5.01649e-05
9.73704e-05
8.19686e-05
0.000125169
0.000119298
0.000155582
0.000145002
0.000168439
0.000122823
0.000128142
5.33748e-05
5.43459e-05
-3.6994e-06
3.51553e-05
-4.45085e-05
-2.30402e-05
-2.47651e-05
1.34634e-05
-1.29395e-05
3.95462e-05
1.76103e-05
6.05112e-05
4.87902e-05
8.10983e-05
6.42465e-05
7.93823e-05
6.83959e-05
0.000101129
6.84242e-05
8.64125e-05
1.21978e-05
1.12505e-05
-4.90782e-05
-1.24286e-05
-5.36299e-05
-2.95643e-05
-2.6039e-05
8.64125e-06
-1.79106e-05
3.09923e-05
8.7621e-06
4.72379e-05
3.47885e-05
5.94387e-05
5.31545e-05
8.44489e-05
8.30181e-05
0.000120311
8.50682e-05
9.79276e-05
1.27181e-05
3.56433e-06
-6.33608e-05
-2.55829e-05
-9.99065e-05
-7.591e-05
-6.37901e-05
-3.07603e-05
-5.932e-05
-1.20623e-05
-2.61402e-05
1.07197e-05
9.37783e-06
2.71221e-05
1.75454e-05
3.1065e-05
2.54911e-05
6.01885e-05
2.77959e-05
4.48641e-05
-4.12763e-05
-4.80177e-05
-0.000113805
-7.82357e-05
-9.53079e-05
-6.82685e-05
-5.11336e-05
-2.2195e-05
-5.06915e-05
-4.19165e-06
-1.49543e-05
2.89819e-05
3.44227e-05
5.1285e-05
4.46895e-05
6.01593e-05
5.02458e-05
7.89541e-05
3.55718e-05
4.5128e-05
-4.64639e-05
-5.29981e-05
-0.000120789
-8.00875e-05
-0.000116246
-9.07417e-05
-6.64961e-05
-4.10525e-05
-7.39991e-05
-2.61864e-05
-2.92286e-05
1.26543e-05
3.81001e-05
4.6409e-05
4.40138e-05
3.95907e-05
2.59716e-05
4.42092e-05
-3.11254e-06
1.04959e-05
-8.09884e-05
-8.32329e-05
-0.000149858
-0.00011253
-7.88616e-05
-4.67204e-05
-2.06865e-05
-3.88169e-07
-3.06128e-05
1.57196e-05
1.55824e-05
6.89335e-05
0.000101884
0.000116033
0.000109056
0.000100825
7.44779e-05
8.60088e-05
3.10062e-05
4.04484e-05
-5.30521e-05
-5.60608e-05
-0.000126545
-7.96079e-05
-7.73218e-05
-5.37663e-05
-1.7984e-05
7.49022e-07
-3.84507e-05
1.35541e-05
1.96143e-05
6.48092e-05
0.000123258
0.000123479
0.000126476
9.23147e-05
6.69314e-05
6.91246e-05
1.80414e-05
3.73134e-05
-6.33284e-05
-6.32518e-05
-0.000132326
-9.38494e-05
-4.42336e-05
-1.13289e-05
2.44436e-05
4.16687e-05
9.15482e-06
5.93818e-05
6.5619e-05
0.000122903
0.000179493
0.0001878
0.000177593
0.00013793
9.45196e-05
9.99009e-05
4.58736e-05
6.41244e-05
-3.69843e-05
-3.7473e-05
-0.000107871
-5.52324e-05
-6.40184e-05
-5.05372e-05
2.05813e-06
2.00295e-05
-2.35327e-05
4.05797e-05
5.03554e-05
8.78091e-05
0.000172754
0.000153405
0.000159581
8.56732e-05
4.92224e-05
3.86505e-05
-7.35439e-06
2.39602e-05
-8.46386e-05
-6.92552e-05
-0.000131007
-9.08269e-05
-6.91388e-05
-4.45874e-05
3.9767e-06
2.7614e-05
-5.04467e-06
5.76618e-05
6.52895e-05
0.000112792
0.000179832
0.000172393
0.000154976
8.39887e-05
1.46872e-05
6.46543e-06
-5.49607e-05
-2.19255e-05
-0.000117286
-8.62127e-05
-0.000136653
-7.89018e-05
-0.000113199
-0.00012245
-4.97818e-05
-2.75053e-05
-7.10782e-05
1.85239e-05
2.23706e-05
3.63761e-05
0.000139766
8.56834e-05
0.000101018
-1.63613e-05
-7.66674e-05
-0.00012915
-0.000187947
-0.000134828
-0.000224524
-0.000151793
-0.000186074
-0.000143334
-0.000144407
-0.000134307
-7.70293e-05
-4.36689e-05
-7.35149e-05
1.26959e-05
1.44457e-05
3.38954e-05
0.000106322
7.76397e-05
6.01432e-05
-3.55319e-05
-0.000153367
-0.00021377
-0.000313098
-0.000245314
-0.000297991
-0.000196523
-0.000212558
-0.000147093
-0.000183508
-0.000222805
-0.000129992
-0.000104873
-0.000150503
-2.4774e-05
-3.69741e-05
-5.759e-05
6.17109e-05
-2.91078e-05
7.56279e-06
-0.000144277
-0.000243716
-0.000382316
-0.000478556
-0.000372621
-0.000416829
-0.000257189
-0.000262176
-0.000218021
-0.000205201
-0.000217733
-0.000145339
-0.000106734
-0.000152999
-2.61939e-05
-3.82312e-05
-6.42259e-05
3.63648e-05
-2.19992e-05
-1.94878e-05
-0.000134765
-0.000297951
-0.000452492
-0.000614384
-0.000455506
-0.000469533
-0.000282619
-0.000274398
-0.000210215
-0.000217651
-0.000277599
-0.000165233
-0.000143934
-0.000204017
-4.03373e-05
-7.2878e-05
-0.000126669
2.05066e-05
-9.81757e-05
-3.64843e-05
-0.000205229
-0.000333377
-0.000574511
-0.000726104
-0.000511798
-0.000538843
-0.00030154
-0.000299122
-0.000253946
-0.00018844
-0.000238296
-0.000122306
-0.000104355
-0.000200316
8.24106e-06
-3.92356e-05
-0.000124435
6.95189e-05
-5.16613e-05
3.08503e-06
-0.000149152
-0.000306566