/*--------------------------------*- C++ -*----------------------------------*\
| =========                 |                                                 |
| \\      /  F ield         | OpenFOAM: The Open Source CFD Toolbox           |
|  \\    /   O peration     | Version:  2.4.0                                 |
|   \\  /    A nd           | Web:      www.OpenFOAM.org                      |
|    \\/     M anipulation  |                                                 |
\*---------------------------------------------------------------------------*/
FoamFile
{
    version     2.0;
    format      ascii;
    class       volScalarField;
    location    "40";
    object      epsilon;
}
// * * * * * * * * * * * * * * * * * * * * * * * * * * * * * * * * * * * * * //

dimensions      [0 2 -3 0 0 0 0];

internalField   nonuniform List<scalar> 
283312
(
0.00038477
0.000378888
0.000374154
0.000370396
0.000367863
0.000366681
0.000366755
0.000367813
0.00036959
0.000371747
0.000373776
0.000375408
0.000376934
0.000378696
0.000380754
0.000382591
0.000383329
0.000382354
0.000379794
0.000377
0.000352464
0.000344574
0.000337539
0.000331631
0.000327368
0.000324747
0.000323707
0.000324083
0.000325775
0.000328367
0.000331161
0.000333983
0.000337091
0.000340719
0.000344048
0.000346334
0.000347431
0.00034756
0.000346758
0.000345176
0.00031105
0.000302061
0.000295089
0.000290199
0.00028755
0.000286843
0.000287483
0.000289284
0.000292524
0.000296742
0.000300832
0.000304318
0.000306968
0.000309042
0.000311013
0.000312553
0.000313374
0.000312804
0.000310384
0.000306713
0.000281234
0.000272649
0.000266805
0.000263283
0.000262022
0.000262514
0.000264108
0.000266725
0.000271646
0.000277986
0.0002834
0.000286977
0.000288414
0.000289319
0.000290462
0.000290904
0.000289866
0.000287016
0.000282775
0.000278163
0.000261011
0.000253433
0.000248904
0.000246532
0.000246198
0.000247196
0.000249056
0.000251847
0.000258645
0.000267138
0.000273205
0.000276504
0.00027718
0.000277495
0.000276856
0.000274756
0.000271434
0.000267221
0.000262608
0.00025829
0.000247579
0.000241014
0.000237489
0.000235689
0.000235625
0.000236749
0.000238602
0.000241331
0.000250002
0.000260071
0.000265053
0.000267225
0.000267544
0.000267436
0.000265028
0.000261272
0.000257056
0.000252688
0.000248501
0.000244897
0.000238901
0.00023315
0.000230288
0.000228709
0.000228599
0.000229605
0.000231246
0.000233724
0.000243808
0.00025487
0.000256344
0.000255355
0.000255954
0.000256197
0.00025366
0.000249966
0.000246098
0.000242328
0.000238958
0.000236145
0.000233047
0.000227934
0.000225543
0.000224027
0.000223618
0.000224396
0.000225737
0.000227887
0.000239142
0.000251429
0.000251469
0.000251013
0.000251022
0.000248623
0.000245013
0.000241451
0.000238148
0.000235088
0.000232485
0.000230284
0.000229214
0.000224598
0.000222548
0.000221058
0.000220344
0.00022069
0.000221674
0.00022352
0.000237166
0.000251201
0.000248856
0.00024649
0.000245078
0.000241466
0.000238064
0.000235079
0.000232477
0.000230091
0.000228144
0.000226407
0.000226623
0.000222398
0.00022062
0.000219169
0.00021827
0.000217981
0.000218587
0.000220123
0.000236348
0.000251091
0.000246655
0.000244323
0.000240432
0.000235838
0.000232872
0.000230431
0.000228455
0.000226603
0.000225177
0.000223775
0.000224947
0.00022103
0.000219484
0.000218084
0.000217143
0.000216178
0.000216266
0.000217421
0.000233836
0.000248315
0.000243536
0.000243602
0.00023694
0.000231557
0.000228985
0.000226992
0.000225573
0.000224155
0.000223172
0.000222023
0.000223878
0.000220201
0.000218865
0.000217529
0.000216638
0.000215305
0.000214764
0.000215381
0.000230469
0.000244478
0.000244135
0.000246179
0.000234939
0.000228436
0.000226097
0.000224456
0.00022352
0.000222447
0.000221834
0.000220867
0.000223255
0.000219763
0.000218622
0.000217353
0.000216563
0.000215132
0.000214259
0.000213879
0.000229375
0.000244169
0.000237561
0.000247111
0.000232619
0.000225723
0.000223814
0.00022255
0.000222065
0.000221273
0.000220977
0.000220138
0.000222949
0.000219594
0.000218636
0.00021744
0.00021679
0.000215369
0.000214567
0.000213253
0.000228699
0.000244417
0.000241866
0.000251457
0.000231107
0.00022366
0.000222127
0.000221186
0.000221086
0.0002205
0.000220473
0.000219714
0.000222875
0.000219618
0.000218834
0.000217705
0.000217219
0.000215838
0.000215269
0.00021372
0.000229185
0.000242116
0.000239063
0.000252755
0.000229229
0.000221938
0.000220884
0.00022024
0.000220463
0.000220023
0.000220232
0.000219514
0.000222973
0.000219781
0.000219161
0.000218093
0.000217783
0.000216462
0.000216215
0.000214755
0.000230393
0.000254829
0.000257777
0.000248207
0.00022704
0.000220608
0.000220068
0.000219659
0.000220127
0.000219774
0.000220191
0.000219478
0.000223202
0.000220043
0.000219577
0.000218566
0.000218429
0.000217157
0.000217269
0.00021579
0.00022067
0.000244871
0.000258676
0.000233638
0.000223002
0.000219193
0.000219492
0.000219339
0.000220002
0.000219696
0.000220304
0.000219564
0.000223529
0.000220375
0.000220056
0.000219096
0.000219118
0.00021787
0.000218319
0.000216746
0.000218862
0.000221718
0.000230618
0.000220963
0.000219612
0.000218291
0.000219281
0.000219268
0.000220048
0.000219749
0.000220537
0.000219739
0.000223932
0.000220757
0.000220575
0.000219666
0.00021983
0.000218586
0.000219336
0.000217561
0.000219294
0.000217951
0.00022141
0.000217681
0.000218959
0.000218248
0.000219391
0.000219372
0.00022021
0.000219897
0.000220865
0.000219981
0.000224395
0.000221174
0.000221121
0.000220266
0.000220549
0.000219295
0.000220327
0.000218319
0.000220158
0.000217929
0.000220142
0.000217586
0.000219342
0.000218549
0.000219647
0.000219582
0.000220451
0.000220115
0.000221269
0.000220272
0.000224907
0.000221614
0.000221683
0.00022089
0.000221267
0.000219993
0.000221301
0.000219016
0.000221081
0.00021841
0.000220608
0.000218066
0.000219921
0.000218924
0.000219952
0.000219856
0.000220743
0.000220384
0.000221738
0.000220598
0.000225461
0.000222068
0.000222253
0.000221534
0.000221977
0.000220679
0.000222262
0.000219673
0.000222019
0.000218922
0.000221351
0.000218588
0.000220531
0.000219324
0.00022028
0.000220179
0.000221071
0.000220695
0.000222264
0.000220951
0.000226049
0.000222529
0.000222826
0.000222199
0.000222671
0.000221352
0.000223219
0.000220289
0.000222955
0.000219418
0.000222147
0.000219078
0.000221139
0.000219726
0.000220612
0.000220537
0.000221421
0.000221036
0.000222841
0.000221319
0.00022667
0.000222991
0.000223396
0.000222887
0.000223348
0.000222017
0.000224179
0.000220872
0.000223895
0.000219885
0.000222953
0.00021953
0.000221748
0.00022013
0.000220944
0.000220928
0.000221784
0.000221403
0.000223467
0.000221699
0.000227319
0.000223448
0.000223961
0.000223598
0.000224002
0.000222674
0.000225146
0.000221422
0.00022484
0.000220323
0.000223772
0.00021995
0.000222358
0.000220534
0.000221263
0.000221344
0.00022215
0.000221792
0.00022414
0.000222082
0.000227998
0.000223896
0.00022452
0.00022434
0.00022463
0.000223327
0.000226129
0.000221944
0.00022579
0.00022073
0.000224599
0.00022034
0.000222975
0.000220936
0.00022157
0.000221789
0.000222518
0.000222203
0.000224863
0.000222468
0.000228705
0.000224328
0.000225068
0.000225116
0.000225227
0.000223974
0.000227131
0.000222434
0.000226745
0.000221106
0.000225437
0.000220704
0.000223598
0.00022133
0.000221854
0.000222259
0.000222876
0.000222631
0.000225639
0.000222851
0.00022944
0.00022474
0.000225609
0.000225934
0.000225784
0.000224619
0.00022816
0.000222898
0.000227713
0.000221463
0.000226293
0.000221052
0.000224237
0.00022172
0.000222115
0.000222763
0.000223227
0.000223083
0.000226473
0.000223227
0.000230204
0.000225125
0.000226138
0.000226799
0.000226298
0.000225266
0.000229226
0.000223333
0.000228693
0.000221798
0.000227166
0.000221382
0.000224896
0.000222101
0.000222344
0.000223298
0.000223558
0.000223554
0.000227366
0.000223591
0.000231004
0.000225485
0.000226664
0.000227729
0.000226767
0.000225919
0.000230333
0.000223743
0.000229687
0.000222133
0.000228066
0.000221715
0.000225583
0.000222474
0.000222553
0.000223881
0.00022388
0.000224059
0.000228332
0.000223952
0.000231832
0.000225798
0.000227182
0.000228725
0.000227169
0.000226578
0.000231496
0.000224121
0.000230699
0.00022245
0.000228995
0.000222028
0.0002263
0.000222834
0.000222713
0.0002245
0.000224165
0.000224587
0.000229372
0.000224286
0.000232709
0.000226095
0.000227717
0.000229809
0.000227525
0.000227262
0.000232723
0.000224491
0.00023173
0.000222786
0.000229962
0.000222365
0.000227069
0.000223192
0.000222866
0.000225196
0.000224458
0.000225173
0.000230505
0.00022463
0.000233621
0.000226314
0.000228245
0.000230985
0.000227782
0.000227957
0.000234025
0.00022481
0.000232779
0.000223083
0.000230958
0.00022266
0.000227881
0.000223517
0.000222948
0.000225938
0.000224685
0.000225791
0.000231734
0.000224934
0.000234603
0.000226549
0.000228816
0.000232279
0.000228006
0.000228691
0.000235415
0.000225157
0.000233866
0.000223449
0.000232018
0.000223028
0.000228778
0.00022386
0.000223055
0.000226797
0.000224957
0.000226496
0.000233084
0.000225279
0.000235618
0.000226641
0.000229399
0.000233696
0.000228057
0.00022945
0.000236909
0.000225412
0.000234966
0.000223717
0.000233107
0.000223298
0.000229738
0.000224127
0.00022306
0.000227721
0.00022511
0.000227259
0.000234557
0.000225543
0.000236749
0.000226854
0.00023006
0.000235256
0.00022816
0.000230264
0.000238509
0.000225782
0.000236134
0.000224154
0.000234297
0.00022374
0.000230838
0.000224486
0.000223157
0.000228829
0.000225412
0.000228141
0.000236177
0.000225935
0.000237904
0.000226767
0.000230763
0.000236992
0.000227917
0.000231133
0.00024026
0.000225948
0.000237307
0.000224388
0.000235521
0.00022398
0.000232037
0.000224641
0.000223112
0.000230038
0.000225472
0.000229117
0.000237964
0.000226142
0.000239257
0.000227063
0.000231621
0.00023889
0.00022801
0.00023212
0.000242137
0.00022644
0.000238617
0.000225001
0.000236919
0.000224608
0.000233479
0.000225115
0.000223281
0.000231524
0.000225919
0.000230276
0.000239915
0.000226679
0.000241072
0.000228872
0.000233181
0.000241141
0.000229377
0.000233771
0.000244304
0.000228558
0.0002403
0.000228122
0.000238901
0.000228004
0.000235686
0.000227531
0.000225877
0.000233749
0.000227855
0.000232186
0.000242184
0.000228764
0.000328805
0.000628156
0.000330101
0.000255985
0.00061663
0.000327909
0.000257868
0.000588285
0.000311333
0.000625529
0.000317308
0.000665398
0.000323994
0.000717716
0.000625999
0.000322424
0.000577924
0.000324882
0.00025689
0.000573652
0.000393389
0.000387147
0.000382285
0.00037845
0.000375836
0.000374612
0.000374694
0.000375816
0.000377712
0.000380051
0.000382325
0.000384228
0.000385994
0.000387946
0.000390118
0.000392006
0.000392676
0.000391458
0.000388505
0.000385269
0.000358427
0.000350254
0.000343028
0.000336912
0.000332485
0.000329728
0.000328636
0.000329046
0.000330854
0.000333647
0.000336693
0.00033971
0.000342877
0.000346427
0.000349639
0.000351773
0.000352737
0.000352803
0.000352015
0.000350455
0.000314697
0.000305479
0.000298306
0.000293221
0.00029046
0.000289731
0.000290424
0.00029234
0.000295768
0.000300274
0.000304617
0.000308118
0.000310505
0.00031217
0.000313811
0.00031521
0.000316107
0.000315735
0.000313496
0.0003099
0.000283571
0.00027479
0.000268774
0.000265114
0.000263832
0.000264359
0.000266044
0.000268796
0.000273968
0.000280702
0.000286317
0.00028965
0.000290524
0.000290907
0.000291847
0.000292389
0.000291605
0.000288981
0.000284852
0.000280227
0.000262678
0.000254941
0.000250277
0.000247814
0.000247482
0.000248528
0.000250477
0.000253393
0.00026052
0.000269522
0.000275691
0.000278557
0.000278619
0.000278581
0.000277913
0.000275998
0.000272879
0.00026877
0.000264156
0.000259765
0.000248833
0.00024213
0.000238492
0.000236628
0.000236591
0.000237763
0.000239696
0.000242534
0.000251586
0.000262229
0.000267118
0.000268674
0.000268482
0.000268278
0.000265998
0.000262402
0.000258278
0.00025391
0.000249668
0.00024598
0.000239935
0.000234059
0.0002311
0.000229473
0.000229391
0.000230438
0.000232145
0.00023471
0.000245183
0.000256842
0.000258004
0.000256157
0.000256428
0.000256835
0.00025454
0.000250977
0.000247137
0.000243328
0.000239896
0.000237011
0.000233928
0.000228696
0.000226217
0.000224659
0.00022428
0.0002251
0.000226493
0.000228712
0.000240324
0.000253268
0.000252893
0.00025161
0.000251467
0.000249268
0.000245834
0.000242335
0.000239022
0.000235913
0.000233256
0.000230997
0.000230007
0.000225277
0.000223146
0.000221617
0.000220912
0.000221314
0.000222339
0.000224236
0.000238262
0.000253046
0.000250179
0.000246973
0.000245513
0.000242094
0.000238814
0.000235856
0.000233231
0.0002308
0.000228811
0.000227029
0.000227349
0.000223015
0.000221159
0.000219671
0.000218764
0.000218543
0.000219184
0.000220754
0.000237395
0.000252918
0.000247948
0.000244832
0.000240908
0.000236446
0.000233551
0.000231114
0.000229112
0.000227223
0.000225765
0.000224328
0.000225633
0.00022161
0.000219991
0.000218554
0.000217596
0.000216684
0.000216811
0.000217988
0.000234781
0.000249985
0.000244719
0.000244156
0.000237491
0.000232157
0.000229604
0.000227601
0.000226159
0.000224714
0.000223708
0.000222534
0.000224533
0.000220753
0.000219348
0.000217977
0.000217063
0.000215747
0.000215249
0.000215899
0.000231285
0.000245896
0.000245339
0.000246957
0.000235617
0.000229038
0.000226665
0.000225005
0.000224049
0.000222961
0.000222331
0.000221345
0.000223891
0.000220299
0.000219091
0.00021779
0.000216976
0.000215544
0.000214672
0.000214354
0.000230129
0.000245468
0.000238343
0.000247753
0.000233303
0.000226292
0.000224329
0.00022305
0.000222553
0.000221753
0.000221446
0.000220595
0.00022357
0.000220118
0.000219095
0.000217871
0.000217197
0.000215772
0.000214952
0.000213683
0.000229394
0.000245661
0.000242884
0.000252308
0.00023187
0.000224216
0.000222604
0.00022165
0.000221543
0.000220956
0.000220922
0.000220155
0.000223486
0.000220136
0.000219288
0.000218134
0.000217625
0.000216242
0.000215651
0.000214108
0.000229822
0.000242961
0.000239669
0.000253586
0.000230003
0.000222473
0.00022133
0.000220677
0.000220897
0.000220461
0.000220666
0.000219944
0.000223577
0.000220294
0.000219611
0.000218522
0.000218191
0.000216871
0.000216606
0.000215159
0.000231042
0.000255953
0.000259085
0.000249271
0.000227802
0.000221123
0.000220492
0.000220079
0.000220546
0.0002202
0.000220613
0.000219901
0.000223799
0.000220553
0.000220025
0.000218996
0.000218839
0.000217572
0.000217669
0.000216219
0.000221132
0.000245797
0.000260046
0.000234711
0.000223602
0.000219643
0.000219887
0.000219744
0.00022041
0.000220113
0.000220718
0.000219982
0.000224122
0.000220884
0.000220502
0.000219526
0.000219532
0.000218292
0.000218727
0.00021719
0.000219308
0.000222304
0.00023113
0.000221481
0.000219995
0.00021868
0.00021966
0.000219665
0.00022045
0.000220161
0.000220945
0.000220154
0.000224521
0.000221266
0.00022102
0.000220098
0.000220245
0.000219012
0.000219748
0.000218013
0.000219736
0.000218464
0.000221805
0.000218112
0.000219316
0.000218637
0.00021977
0.000219768
0.00022061
0.000220304
0.000221268
0.000220394
0.000224982
0.000221683
0.000221565
0.000220698
0.000220967
0.000219725
0.000220742
0.000218777
0.000220593
0.000218425
0.000220548
0.000218021
0.000219709
0.000218947
0.000220031
0.000219978
0.000220849
0.000220519
0.000221668
0.000220685
0.000225492
0.000222124
0.000222126
0.000221323
0.000221687
0.000220426
0.000221718
0.000219479
0.000221508
0.0002189
0.000221016
0.000218508
0.000220295
0.000219329
0.000220339
0.000220252
0.000221141
0.000220787
0.000222134
0.000221012
0.000226043
0.00022258
0.000222695
0.000221967
0.000222399
0.000221114
0.00022268
0.000220141
0.00022244
0.000219409
0.000221754
0.000219035
0.000220908
0.000219734
0.00022067
0.000220573
0.000221468
0.000221094
0.000222656
0.000221365
0.000226629
0.000223043
0.000223266
0.000222631
0.000223095
0.000221788
0.000223637
0.000220762
0.000223372
0.000219904
0.000222545
0.000219529
0.000221519
0.000220141
0.000221005
0.00022093
0.000221817
0.000221433
0.00022323
0.000221735
0.000227248
0.000223507
0.000223834
0.000223317
0.000223774
0.000222454
0.000224597
0.000221349
0.000224307
0.000220373
0.000223346
0.000219986
0.000222128
0.000220549
0.000221338
0.000221317
0.00022218
0.000221797
0.000223853
0.000222117
0.000227894
0.000223965
0.000224397
0.000224027
0.000224429
0.00022311
0.000225562
0.000221903
0.000225247
0.000220813
0.00022416
0.000220409
0.000222737
0.000220955
0.000221659
0.00022173
0.000222546
0.000222182
0.000224523
0.000222503
0.00022857
0.000224415
0.000224953
0.000224766
0.00022506
0.000223762
0.000226544
0.00022243
0.000226192
0.000221222
0.00022498
0.000220803
0.000223352
0.000221358
0.000221967
0.000222169
0.000222913
0.000222588
0.000225242
0.000222892
0.000229274
0.000224849
0.000225497
0.000225538
0.000225659
0.000224406
0.000227545
0.000222925
0.000227143
0.000221602
0.000225812
0.000221171
0.000223972
0.000221753
0.000222252
0.000222634
0.000223272
0.00022301
0.000226014
0.000223279
0.000230004
0.000225263
0.000226033
0.000226351
0.000226219
0.000225048
0.000228571
0.000223393
0.000228106
0.000221961
0.000226661
0.000221521
0.000224606
0.000222142
0.000222513
0.000223129
0.000223621
0.000223456
0.000226842
0.000223658
0.000230763
0.00022565
0.000226557
0.00022721
0.000226736
0.00022569
0.000229634
0.000223833
0.00022908
0.0002223
0.000227528
0.000221855
0.00022526
0.000222523
0.000222743
0.000223655
0.000223952
0.000223919
0.000227729
0.000224027
0.000231558
0.000226011
0.000227076
0.000228132
0.000227209
0.000226337
0.000230737
0.000224247
0.000230067
0.000222638
0.000228419
0.000222189
0.00022594
0.000222893
0.00022295
0.000224226
0.000224273
0.000224414
0.000228688
0.000224391
0.000232381
0.000226326
0.000227586
0.00022912
0.000227616
0.000226989
0.000231896
0.000224632
0.000231072
0.000222959
0.00022934
0.000222506
0.000226651
0.000223252
0.000223112
0.000224833
0.000224559
0.000224932
0.00022972
0.000224732
0.00023325
0.000226622
0.00022811
0.000230193
0.000227976
0.000227663
0.000233117
0.000225004
0.000232094
0.000223296
0.000230295
0.000222841
0.00022741
0.000223605
0.000223262
0.000225511
0.000224849
0.000225504
0.000230844
0.000225079
0.000234155
0.000226845
0.000228628
0.000231358
0.00022824
0.000228349
0.000234413
0.000225331
0.000233135
0.000223597
0.000231281
0.00022314
0.000228214
0.000223929
0.000223344
0.000226238
0.000225078
0.000226109
0.000232064
0.000225392
0.000235127
0.000227076
0.000229185
0.000232637
0.000228468
0.00022907
0.000235794
0.000225679
0.000234211
0.000223958
0.000232328
0.000223503
0.000229097
0.000224264
0.000223446
0.000227074
0.000225345
0.000226796
0.000233402
0.000225741
0.000236134
0.000227174
0.000229755
0.000234039
0.000228531
0.000229817
0.00023728
0.000225945
0.0002353
0.000224231
0.000233404
0.000223777
0.000230046
0.000224532
0.000223452
0.000227977
0.000225502
0.000227544
0.000234863
0.000226018
0.000237253
0.000227381
0.000230399
0.000235581
0.000228635
0.000230614
0.000238868
0.000226313
0.000236455
0.000224655
0.000234577
0.000224208
0.000231128
0.000224878
0.000223541
0.000229056
0.000225797
0.000228404
0.000236469
0.00022641
0.000238399
0.000227305
0.000231085
0.000237298
0.000228414
0.000231467
0.000240609
0.000226495
0.000237616
0.000224894
0.000235786
0.000224454
0.000232313
0.000225038
0.000223498
0.000230239
0.000225867
0.000229362
0.000238243
0.000226638
0.000239738
0.000227587
0.000231922
0.000239173
0.000228502
0.000232435
0.000242472
0.000226978
0.00023891
0.000225485
0.000237165
0.00022506
0.000233734
0.000225491
0.000223652
0.000231687
0.000226299
0.000230497
0.000240176
0.00022717
0.000241525
0.000229246
0.000233435
0.000241401
0.000229737
0.000234041
0.000244626
0.000228951
0.000240562
0.000228417
0.000239114
0.000228249
0.000235904
0.000227709
0.00022606
0.000233855
0.000228101
0.000232358
0.00024243
0.000229128
0.000326419
0.000593815
0.000326414
0.000256274
0.000582795
0.000324174
0.000258202
0.000557402
0.000309185
0.00059044
0.000314767
0.000625449
0.000320948
0.000671585
0.000593337
0.000319119
0.0005486
0.000321099
0.000257125
0.000544338
0.0004021
0.000395458
0.000390472
0.000386577
0.000383901
0.000382638
0.000382723
0.000383903
0.000385916
0.000388438
0.000390965
0.000393154
0.000395177
0.000397317
0.000399586
0.000401484
0.000402034
0.000400526
0.000397153
0.000393479
0.000364285
0.000355814
0.000348412
0.000342096
0.000337493
0.000334603
0.000333463
0.000333912
0.000335839
0.000338835
0.000342132
0.000345335
0.000348534
0.000351967
0.000354985
0.000356899
0.000357694
0.000357709
0.000356975
0.000355491
0.000318178
0.000308731
0.000301367
0.000296092
0.000293219
0.000292469
0.000293218
0.000295252
0.000298871
0.000303663
0.000308249
0.000311726
0.000313771
0.000314926
0.000316163
0.000317397
0.000318401
0.000318294
0.000316308
0.000312844
0.000285769
0.00027679
0.000270605
0.00026681
0.0002655
0.000266063
0.000267839
0.000270728
0.000276153
0.00028328
0.000289075
0.000292094
0.000292303
0.000292089
0.000292804
0.000293487
0.00029303
0.000290702
0.00028673
0.00028212
0.000264206
0.000256309
0.000251512
0.000248957
0.000248633
0.000249727
0.000251764
0.000254803
0.000262261
0.000271777
0.000278015
0.000280367
0.000279721
0.000279283
0.000278611
0.000276949
0.000274096
0.000270131
0.000265537
0.000261083
0.000249969
0.000243127
0.000239377
0.000237446
0.000237437
0.000238657
0.000240667
0.00024361
0.000253046
0.000264265
0.000269023
0.000269877
0.00026911
0.000268818
0.000266719
0.000263339
0.00025934
0.00025499
0.0002507
0.000246933
0.000240853
0.000234852
0.000231795
0.000230116
0.000230068
0.000231155
0.000232924
0.000235574
0.000246431
0.000258694
0.000259501
0.000256713
0.00025662
0.00025723
0.000255229
0.000251831
0.000248035
0.000244195
0.000240704
0.000237751
0.000234704
0.000229354
0.000226784
0.000225183
0.000224838
0.000225696
0.000227138
0.000229422
0.000241379
0.000254992
0.000254173
0.000251994
0.000251686
0.000249733
0.00024651
0.000243091
0.000239773
0.00023662
0.000233911
0.000231596
0.000230696
0.000225853
0.000223637
0.000222069
0.000221375
0.000221833
0.000222896
0.000224839
0.000239228
0.000254782
0.000251369
0.000247265
0.000245759
0.000242575
0.000239436
0.000236513
0.000233867
0.000231395
0.000229364
0.00022754
0.000227978
0.000223534
0.000221598
0.000220071
0.000219157
0.000219006
0.000219676
0.000221277
0.000238313
0.000254642
0.000249131
0.000245185
0.000241237
0.000236934
0.000234113
0.000231686
0.000229659
0.000227737
0.000226247
0.000224777
0.000226223
0.000222095
0.000220399
0.000218925
0.000217947
0.000217097
0.000217257
0.000218451
0.000235597
0.000251556
0.000245811
0.000244575
0.000237923
0.000232651
0.000230114
0.000228104
0.000226637
0.00022517
0.00022414
0.000222942
0.000225097
0.000221214
0.000219734
0.000218329
0.00021739
0.000216099
0.000215643
0.000216316
0.000231974
0.000247207
0.00024647
0.000247624
0.000236199
0.000229542
0.000227128
0.000225451
0.000224476
0.000223373
0.000222726
0.000221724
0.000224436
0.000220744
0.000219464
0.000218133
0.000217291
0.000215864
0.000214999
0.000214734
0.000230758
0.000246656
0.000239057
0.000248271
0.000233897
0.000226768
0.000224743
0.00022345
0.000222939
0.000222134
0.000221815
0.000220953
0.000224101
0.000220553
0.000219461
0.000218208
0.000217507
0.000216083
0.000215243
0.000214022
0.000229969
0.000246802
0.00024386
0.000253042
0.000232556
0.000224685
0.000222983
0.000222016
0.0002219
0.000221314
0.000221271
0.0002205
0.000224007
0.000220565
0.000219648
0.00021847
0.000217936
0.000216554
0.00021594
0.000214407
0.000230345
0.000243679
0.000240208
0.000254285
0.000230705
0.000222925
0.000221681
0.000221019
0.000221233
0.000220803
0.000221
0.000220279
0.000224091
0.000220719
0.000219968
0.000218858
0.000218504
0.000217189
0.000216904
0.000215474
0.000231576
0.000256908
0.00026025
0.000250227
0.000228492
0.000221556
0.000220823
0.000220404
0.000220867
0.000220531
0.000220937
0.000220229
0.000224309
0.000220976
0.00022038
0.000219333
0.000219155
0.000217897
0.000217977
0.00021656
0.0002215
0.000246601
0.000261283
0.000235724
0.000224125
0.000220006
0.000220187
0.000220055
0.000220722
0.000220436
0.000221034
0.000220305
0.000224627
0.000221306
0.000220855
0.000219865
0.00021985
0.000218623
0.000219041
0.000217546
0.000219664
0.000222816
0.000231547
0.000221915
0.000220285
0.000218978
0.000219943
0.00021997
0.000220757
0.000220479
0.000221255
0.000220475
0.000225024
0.000221688
0.000221373
0.000220438
0.000220566
0.000219348
0.000220066
0.000218378
0.000220087
0.000218897
0.000222111
0.000218458
0.000219581
0.000218935
0.000220055
0.000220071
0.000220914
0.000220619
0.000221574
0.000220714
0.000225482
0.000222106
0.000221917
0.000221039
0.00022129
0.000220064
0.000221063
0.000219148
0.000220935
0.000218839
0.000220865
0.000218371
0.000219983
0.000219255
0.00022032
0.000220282
0.000221152
0.000220832
0.00022197
0.000221005
0.00022599
0.000222549
0.000222476
0.000221664
0.000222012
0.000220768
0.000222039
0.000219855
0.000221842
0.000219305
0.000221333
0.000218865
0.000220575
0.000219645
0.000220632
0.000220556
0.000221443
0.000221097
0.000222433
0.000221332
0.000226539
0.000223006
0.000223044
0.000222308
0.000222725
0.000221459
0.000223001
0.000220521
0.000222767
0.000219811
0.000222064
0.000219396
0.000221192
0.000220057
0.000220967
0.000220877
0.00022177
0.000221402
0.000222952
0.000221688
0.000227123
0.000223471
0.000223614
0.000222972
0.000223423
0.000222133
0.000223958
0.000221146
0.000223693
0.000220306
0.000222849
0.000219895
0.000221805
0.000220468
0.000221305
0.000221232
0.000222119
0.000221739
0.000223523
0.000222059
0.000227739
0.000223937
0.000224181
0.000223656
0.000224104
0.0002228
0.000224916
0.000221738
0.000224622
0.000220776
0.000223643
0.000220356
0.000222414
0.000220879
0.00022164
0.000221617
0.000222482
0.0002221
0.000224142
0.000222444
0.000228383
0.000224397
0.000224741
0.000224364
0.000224761
0.000223456
0.00022588
0.000222297
0.000225556
0.000221218
0.000224451
0.000220784
0.000223022
0.000221287
0.000221963
0.000222026
0.000222848
0.000222482
0.000224808
0.000222833
0.000229055
0.000224849
0.000225294
0.000225099
0.000225394
0.000224106
0.00022686
0.000222829
0.000226496
0.000221631
0.000225265
0.000221181
0.000223634
0.000221692
0.000222272
0.00022246
0.000223215
0.000222883
0.000225523
0.000223226
0.000229755
0.000225286
0.000225834
0.000225867
0.000225996
0.000224748
0.000227858
0.000223329
0.000227441
0.000222014
0.00022609
0.000221553
0.000224251
0.000222088
0.000222558
0.000222919
0.000223574
0.000223301
0.00022629
0.000223616
0.000230481
0.000225702
0.000226365
0.000226674
0.000226558
0.000225386
0.000228881
0.000223802
0.000228398
0.000222376
0.000226932
0.000221906
0.00022488
0.000222477
0.00022282
0.000223406
0.000223923
0.000223739
0.000227112
0.000223999
0.000231235
0.000226092
0.000226883
0.000227527
0.000227079
0.000226024
0.00022994
0.000224248
0.000229365
0.000222719
0.00022779
0.000222244
0.000225529
0.000222858
0.000223051
0.000223922
0.000224254
0.000224195
0.000227993
0.000224374
0.000232023
0.000226454
0.000227395
0.00022844
0.000227556
0.000226664
0.000231038
0.000224667
0.000230344
0.00022306
0.000228672
0.00022258
0.000226202
0.000223226
0.000223257
0.000224482
0.000224574
0.000224679
0.000228943
0.000224743
0.00023284
0.000226772
0.000227898
0.000229419
0.000227968
0.000227308
0.00023219
0.000225058
0.000231341
0.000223385
0.000229583
0.0002229
0.000226906
0.000223584
0.000223419
0.000225075
0.000224859
0.000225187
0.000229967
0.000225089
0.000233701
0.000227069
0.000228411
0.000230481
0.000228333
0.000227973
0.000233405
0.000225435
0.000232354
0.000223723
0.000230527
0.000223235
0.000227655
0.000223934
0.000223567
0.000225737
0.000225148
0.000225745
0.000231081
0.000225442
0.000234598
0.000227294
0.000228919
0.000231632
0.000228605
0.000228649
0.000234693
0.000225769
0.000233385
0.000224028
0.000231501
0.000223537
0.000228448
0.000224256
0.000223649
0.000226446
0.000225378
0.000226336
0.000232289
0.000225763
0.00023556
0.000227525
0.000229461
0.000232896
0.000228838
0.000229356
0.000236065
0.00022612
0.000234449
0.000224386
0.000232533
0.000223896
0.000229318
0.000224585
0.000223746
0.00022726
0.000225641
0.000227006
0.000233614
0.000226117
0.000236557
0.000227628
0.000230017
0.00023428
0.000228913
0.000230089
0.00023754
0.000226395
0.000235526
0.00022466
0.000233594
0.000224172
0.000230252
0.000224851
0.000223752
0.00022814
0.000225802
0.000227735
0.000235061
0.000226406
0.000237663
0.00022783
0.000230641
0.000235802
0.000229022
0.000230868
0.000239116
0.000226764
0.000236665
0.000225075
0.000234749
0.000224592
0.000231316
0.000225186
0.000223832
0.000229188
0.000226089
0.000228573
0.00023665
0.000226802
0.000238797
0.000227764
0.000231309
0.000237497
0.00022882
0.000231703
0.000240843
0.00022696
0.000237811
0.000225316
0.000235939
0.000224842
0.000232482
0.000225348
0.000223787
0.000230341
0.000226167
0.000229509
0.000238408
0.000227047
0.00024012
0.000228035
0.000232122
0.000239347
0.000228909
0.000232649
0.00024269
0.000227438
0.000239088
0.000225888
0.000237296
0.00022543
0.000233879
0.000225785
0.000223927
0.000231749
0.000226586
0.000230616
0.000240321
0.000227578
0.000241872
0.000229547
0.000233582
0.000241548
0.000230018
0.000234204
0.000244827
0.000229268
0.000240704
0.000228627
0.000239206
0.00022841
0.000236005
0.000227812
0.000226145
0.00023385
0.000228255
0.000232422
0.000242554
0.00022941
0.000323712
0.000561815
0.000322474
0.000256397
0.000551312
0.000320199
0.000258365
0.000528629
0.000306756
0.000557834
0.000311934
0.000588496
0.000317606
0.000629076
0.000562456
0.000315535
0.000521097
0.000317086
0.000257186
0.000516959
0.000410792
0.000403706
0.000398609
0.000394684
0.000391981
0.000390702
0.000390803
0.00039205
0.00039419
0.000396908
0.000399705
0.000402203
0.000404512
0.000406849
0.000409199
0.000411058
0.000411409
0.000409526
0.000405665
0.000401522
0.00036995
0.000361178
0.000353623
0.000347128
0.000342358
0.000339347
0.000338167
0.000338665
0.00034072
0.000343925
0.000347475
0.000350857
0.000354055
0.000357313
0.000360043
0.000361641
0.000362211
0.000362168
0.000361527
0.000360179
0.000321466
0.000311794
0.000304253
0.000298797
0.000295818
0.000295052
0.000295861
0.00029802
0.000301837
0.000306919