/*--------------------------------*- C++ -*----------------------------------*\
| =========                 |                                                 |
| \\      /  F ield         | OpenFOAM: The Open Source CFD Toolbox           |
|  \\    /   O peration     | Version:  2.4.0                                 |
|   \\  /    A nd           | Web:      www.OpenFOAM.org                      |
|    \\/     M anipulation  |                                                 |
\*---------------------------------------------------------------------------*/
FoamFile
{
    version     2.0;
    format      ascii;
    class       volScalarField;
    location    "40";
    object      k;
}
// * * * * * * * * * * * * * * * * * * * * * * * * * * * * * * * * * * * * * //

dimensions      [0 2 -2 0 0 0 0];

internalField   nonuniform List<scalar> 
283312
(
0.000108309
0.000103805
0.00010205
0.000102599
0.000104473
0.000106722
0.000108821
0.000110645
0.000112248
0.000113723
0.000115149
0.000116573
0.000118012
0.000119365
0.000120311
0.000120565
0.00011966
0.000117034
0.000112432
0.000106596
7.57687e-05
7.93101e-05
8.28366e-05
8.51435e-05
8.59427e-05
8.55929e-05
8.46072e-05
8.35468e-05
8.27525e-05
8.22262e-05
8.17708e-05
8.11515e-05
8.01558e-05
7.87092e-05
7.66193e-05
7.36276e-05
7.00395e-05
6.67642e-05
6.49982e-05
6.56875e-05
6.37683e-05
6.66395e-05
6.76886e-05
6.70666e-05
6.5517e-05
6.40116e-05
6.30899e-05
6.27385e-05
6.27482e-05
6.26438e-05
6.19854e-05
6.04097e-05
5.7576e-05
5.32906e-05
4.83233e-05
4.40801e-05
4.20491e-05
4.31417e-05
4.71618e-05
5.28882e-05
5.847e-05
5.84788e-05
5.73084e-05
5.54906e-05
5.3763e-05
5.27741e-05
5.24886e-05
5.27008e-05
5.30393e-05
5.28586e-05
5.16117e-05
4.86951e-05
4.38387e-05
3.78854e-05
3.3524e-05
3.23045e-05
3.46842e-05
3.98646e-05
4.60394e-05
5.13069e-05
5.36791e-05
5.22342e-05
5.05402e-05
4.88255e-05
4.75787e-05
4.7091e-05
4.71161e-05
4.74951e-05
4.78456e-05
4.73758e-05
4.53452e-05
4.10742e-05
3.52118e-05
3.01574e-05
2.86231e-05
3.10593e-05
3.64203e-05
4.25054e-05
4.72617e-05
4.98475e-05
4.95315e-05
4.78054e-05
4.62275e-05
4.48054e-05
4.39189e-05
4.36768e-05
4.38239e-05
4.42251e-05
4.43719e-05
4.32798e-05
4.0129e-05
3.43954e-05
2.84242e-05
2.61553e-05
2.8472e-05
3.39294e-05
4.00366e-05
4.45762e-05
4.68352e-05
4.72991e-05
4.66625e-05
4.50919e-05
4.37234e-05
4.25223e-05
4.18372e-05
4.16657e-05
4.17941e-05
4.21218e-05
4.1979e-05
4.02045e-05
3.61495e-05
2.93226e-05
2.40207e-05
2.47371e-05
3.02028e-05
3.69793e-05
4.20914e-05
4.46135e-05
4.52194e-05
4.4837e-05
4.46769e-05
4.328e-05
4.20696e-05
4.10249e-05
4.04495e-05
4.03125e-05
4.04059e-05
4.06538e-05
4.02271e-05
3.79403e-05
3.32339e-05
2.60744e-05
2.28566e-05
2.62951e-05
3.32206e-05
3.92903e-05
4.26038e-05
4.36094e-05
4.3467e-05
4.28905e-05
4.34182e-05
4.21671e-05
4.10736e-05
4.01264e-05
3.95972e-05
3.94481e-05
3.94746e-05
3.96155e-05
3.87414e-05
3.59671e-05
3.09398e-05
2.41246e-05
2.3277e-05
2.87743e-05
3.57631e-05
4.03336e-05
4.21785e-05
4.2414e-05
4.20757e-05
4.15542e-05
4.25512e-05
4.14068e-05
4.04036e-05
3.95274e-05
3.90072e-05
3.88499e-05
3.88173e-05
3.88507e-05
3.74998e-05
3.4032e-05
2.90097e-05
2.33372e-05
2.48706e-05
3.14115e-05
3.74573e-05
4.05231e-05
4.14473e-05
4.13689e-05
4.10353e-05
4.06082e-05
4.19889e-05
4.09305e-05
4.00013e-05
3.91781e-05
3.8646e-05
3.84591e-05
3.83664e-05
3.82944e-05
3.66888e-05
3.22008e-05
2.70848e-05
2.30758e-05
2.70104e-05
3.37992e-05
3.84748e-05
4.03237e-05
4.073e-05
4.05581e-05
4.02953e-05
3.99644e-05
4.16057e-05
4.06151e-05
3.97486e-05
3.89733e-05
3.84424e-05
3.8196e-05
3.80572e-05
3.79048e-05
3.62258e-05
3.04134e-05
2.55059e-05
2.41585e-05
2.99698e-05
3.59896e-05
3.90994e-05
4.00137e-05
4.0131e-05
3.99495e-05
3.97633e-05
3.95115e-05
4.13601e-05
4.04253e-05
3.96128e-05
3.88811e-05
3.83703e-05
3.80488e-05
3.78376e-05
3.76223e-05
3.56725e-05
2.8998e-05
2.32395e-05
2.33596e-05
3.13122e-05
3.69808e-05
3.91662e-05
3.96086e-05
3.96356e-05
3.94969e-05
3.93869e-05
3.92025e-05
4.12057e-05
4.03159e-05
3.95501e-05
3.88602e-05
3.83886e-05
3.80325e-05
3.77559e-05
3.74879e-05
3.53435e-05
2.81559e-05
2.36953e-05
2.52686e-05
3.36773e-05
3.81202e-05
3.92982e-05
3.93311e-05
3.92881e-05
3.91819e-05
3.91291e-05
3.89957e-05
4.11198e-05
4.02669e-05
3.95406e-05
3.88885e-05
3.84636e-05
3.81155e-05
3.78301e-05
3.74805e-05
3.52458e-05
2.58271e-05
2.08899e-05
2.56202e-05
3.51679e-05
3.88282e-05
3.93459e-05
3.91217e-05
3.90461e-05
3.89686e-05
3.89593e-05
3.88653e-05
4.10836e-05
4.02605e-05
3.9567e-05
3.8949e-05
3.85753e-05
3.82661e-05
3.80548e-05
3.7772e-05
3.59336e-05
2.75451e-05
2.34657e-05
2.89617e-05
3.67853e-05
3.93286e-05
3.93579e-05
3.8985e-05
3.89005e-05
3.88413e-05
3.88594e-05
3.87932e-05
4.10843e-05
4.02856e-05
3.96183e-05
3.90287e-05
3.87023e-05
3.84371e-05
3.83155e-05
3.81847e-05
3.80401e-05
3.42326e-05
3.26828e-05
3.77302e-05
4.02178e-05
3.98121e-05
3.91174e-05
3.87565e-05
3.87712e-05
3.87615e-05
3.88071e-05
3.87641e-05
4.1113e-05
4.03343e-05
3.96871e-05
3.91206e-05
3.88365e-05
3.86126e-05
3.85682e-05
3.85549e-05
3.88447e-05
3.90866e-05
3.86121e-05
3.93136e-05
3.91929e-05
3.87534e-05
3.86223e-05
3.85906e-05
3.87242e-05
3.87399e-05
3.87958e-05
3.87688e-05
4.11623e-05
4.04008e-05
3.97679e-05
3.9219e-05
3.89703e-05
3.87785e-05
3.8787e-05
3.88346e-05
3.91451e-05
3.97715e-05
3.98308e-05
3.95398e-05
3.90134e-05
3.86598e-05
3.86361e-05
3.86295e-05
3.87572e-05
3.87577e-05
3.88114e-05
3.87977e-05
4.12269e-05
4.04804e-05
3.98568e-05
3.93204e-05
3.91017e-05
3.8934e-05
3.89781e-05
3.90568e-05
3.93105e-05
3.97479e-05
3.98281e-05
3.95065e-05
3.90711e-05
3.87959e-05
3.87727e-05
3.8722e-05
3.88185e-05
3.87957e-05
3.88445e-05
3.88446e-05
4.13027e-05
4.05695e-05
3.99503e-05
3.94225e-05
3.92294e-05
3.90789e-05
3.91467e-05
3.92425e-05
3.94428e-05
3.97443e-05
3.97591e-05
3.9507e-05
3.91643e-05
3.89346e-05
3.89018e-05
3.88107e-05
3.8884e-05
3.88424e-05
3.88882e-05
3.89044e-05
4.13866e-05
4.06654e-05
4.00464e-05
3.95234e-05
3.93535e-05
3.92145e-05
3.92987e-05
3.9406e-05
3.95605e-05
3.97741e-05
3.97333e-05
3.9543e-05
3.92631e-05
3.90636e-05
3.90215e-05
3.88951e-05
3.89516e-05
3.88944e-05
3.8939e-05
3.89741e-05
4.14757e-05
4.07658e-05
4.01427e-05
3.96214e-05
3.94728e-05
3.93407e-05
3.94381e-05
3.9556e-05
3.96733e-05
3.98336e-05
3.9749e-05
3.96015e-05
3.93554e-05
3.91742e-05
3.9126e-05
3.89708e-05
3.90172e-05
3.89472e-05
3.89929e-05
3.90494e-05
4.15681e-05
4.08688e-05
4.02376e-05
3.97155e-05
3.95876e-05
3.9459e-05
3.95675e-05
3.96972e-05
3.9783e-05
3.99097e-05
3.97871e-05
3.96722e-05
3.94432e-05
3.92748e-05
3.92212e-05
3.90396e-05
3.90802e-05
3.89991e-05
3.90478e-05
3.91288e-05
4.16614e-05
4.0972e-05
4.03284e-05
3.98031e-05
3.9697e-05
3.95692e-05
3.96868e-05
3.98316e-05
3.98919e-05
3.99972e-05
3.98413e-05
3.97494e-05
3.9524e-05
3.93642e-05
3.93047e-05
3.90982e-05
3.91372e-05
3.9046e-05
3.91e-05
3.92094e-05
4.17546e-05
4.10747e-05
4.04144e-05
3.98839e-05
3.98014e-05
3.96715e-05
3.97987e-05
3.9961e-05
3.99988e-05
4.00902e-05
3.99023e-05
3.98276e-05
3.95979e-05
3.94431e-05
3.93778e-05
3.91467e-05
3.91878e-05
3.9087e-05
3.91486e-05
3.92907e-05
4.18455e-05
4.11733e-05
4.04918e-05
3.99555e-05
3.98987e-05
3.97628e-05
3.99012e-05
4.00836e-05
4.0102e-05
4.01839e-05
3.99643e-05
3.99019e-05
3.96619e-05
3.95098e-05
3.94382e-05
3.91814e-05
3.9227e-05
3.91168e-05
3.91903e-05
3.93693e-05
4.19335e-05
4.12669e-05
4.05599e-05
4.00179e-05
3.99885e-05
3.98441e-05
3.99944e-05
4.01991e-05
4.02022e-05
4.02736e-05
4.0024e-05
3.99672e-05
3.97145e-05
3.95643e-05
3.9485e-05
3.92027e-05
3.9255e-05
3.91357e-05
3.92255e-05
3.94445e-05
4.20146e-05
4.13515e-05
4.06131e-05
4.0065e-05
4.00675e-05
3.99108e-05
4.00769e-05
4.03058e-05
4.02964e-05
4.03534e-05
4.00748e-05
4.00179e-05
3.97521e-05
3.96026e-05
3.95147e-05
3.92044e-05
3.9266e-05
3.91367e-05
3.92477e-05
3.95127e-05
4.20903e-05
4.14258e-05
4.06516e-05
4.01009e-05
4.01377e-05
3.9963e-05
4.01492e-05
4.04021e-05
4.03818e-05
4.04174e-05
4.01119e-05
4.00496e-05
3.97715e-05
3.96218e-05
3.95251e-05
3.91872e-05
3.92596e-05
3.91213e-05
3.92613e-05
3.95751e-05
4.21538e-05
4.14837e-05
4.0667e-05
4.01165e-05
4.01907e-05
3.99941e-05
4.02048e-05
4.04852e-05
4.04569e-05
4.04622e-05
4.01321e-05
4.00589e-05
3.97694e-05
3.96203e-05
3.95114e-05
3.91438e-05
3.92284e-05
3.90803e-05
3.92575e-05
3.96246e-05
4.22058e-05
4.15243e-05
4.06618e-05
4.01156e-05
4.02292e-05
4.00073e-05
4.02481e-05
4.05508e-05
4.05176e-05
4.04788e-05
4.01296e-05
4.00374e-05
3.9742e-05
3.95926e-05
3.94674e-05
3.9072e-05
3.91722e-05
3.90176e-05
3.92405e-05
3.96616e-05
4.22403e-05
4.15405e-05
4.06234e-05
4.00889e-05
4.02447e-05
3.99905e-05
4.02689e-05
4.0596e-05
4.05593e-05
4.04686e-05
4.01014e-05
3.99876e-05
3.96874e-05
3.95369e-05
3.93912e-05
3.89655e-05
3.90834e-05
3.89202e-05
3.92008e-05
3.96807e-05
4.22521e-05
4.15205e-05
4.05517e-05
4.0042e-05
4.02339e-05
3.99459e-05
4.0273e-05
4.06102e-05
4.05765e-05
4.04123e-05
4.00392e-05
3.989e-05
3.95956e-05
3.94415e-05
3.92672e-05
3.88166e-05
3.89501e-05
3.87874e-05
3.91429e-05
3.96728e-05
4.22399e-05
4.147e-05
4.04375e-05
3.99643e-05
4.01984e-05
3.98627e-05
4.02488e-05
4.05978e-05
4.05667e-05
4.03236e-05
3.99441e-05
3.97602e-05
3.94702e-05
3.93112e-05
3.91018e-05
3.86214e-05
3.87798e-05
3.86136e-05
3.90583e-05
3.96467e-05
4.21877e-05
4.13537e-05
4.0272e-05
3.98589e-05
4.01098e-05
3.97359e-05
4.02015e-05
4.05298e-05
4.05151e-05
4.01648e-05
3.97997e-05
3.95582e-05
3.92893e-05
3.91137e-05
3.88556e-05
3.8358e-05
3.853e-05
3.83808e-05
3.89429e-05
3.95651e-05
4.21112e-05
4.12069e-05
4.00577e-05
3.97255e-05
4.00026e-05
3.95686e-05
4.01294e-05
4.04403e-05
4.04327e-05
3.99767e-05
3.96219e-05
3.93336e-05
3.90776e-05
3.88865e-05
3.85604e-05
3.80395e-05
3.82459e-05
3.81079e-05
3.88072e-05
3.94743e-05
4.1965e-05
4.09368e-05
3.97582e-05
3.95494e-05
3.97834e-05
3.93267e-05
4.00236e-05
4.02477e-05
4.02832e-05
3.9675e-05
3.93743e-05
3.89953e-05
3.87885e-05
3.85479e-05
3.81353e-05
3.76164e-05
3.78223e-05
3.77412e-05
3.86267e-05
3.92793e-05
4.16765e-05
4.03538e-05
3.92708e-05
3.93172e-05
3.93146e-05
3.89196e-05
3.98654e-05
3.97798e-05
3.99818e-05
3.89437e-05
3.89215e-05
3.82066e-05
3.82894e-05
3.78669e-05
3.72803e-05
3.69837e-05
3.71186e-05
3.72178e-05
3.84067e-05
3.88495e-05
2.82398e-05
1.05695e-05
2.38223e-05
3.55651e-05
1.12505e-05
2.39821e-05
3.63069e-05
1.23447e-05
2.72681e-05
9.86228e-06
2.54586e-05
8.42358e-06
2.38415e-05
7.03047e-06
7.9539e-06
2.35975e-05
1.09302e-05
2.30171e-05
3.48439e-05
1.2641e-05
0.000101179
9.66419e-05
9.51051e-05
9.60603e-05
9.84568e-05
0.000101259
0.000103878
0.000106125
0.00010803
0.000109691
0.000111195
0.000112594
0.000113908
0.000115072
0.000115715
0.000115563
0.000114153
0.000110949
0.000105773
9.94825e-05
6.97452e-05
7.35802e-05
7.7534e-05
8.03217e-05
8.15818e-05
8.16297e-05
8.09359e-05
8.00832e-05
7.94148e-05
7.89176e-05
7.83704e-05
7.75327e-05
7.62087e-05
7.43085e-05
7.17618e-05
6.83215e-05
6.43462e-05
6.0795e-05
5.88881e-05
5.95745e-05
5.97773e-05
6.29381e-05
6.42789e-05
6.39205e-05
6.25911e-05
6.12722e-05
6.04589e-05
6.01648e-05
6.01767e-05
5.99754e-05
5.9097e-05
5.721e-05
5.40286e-05
4.94154e-05
4.41853e-05
3.97859e-05
3.76914e-05
3.87855e-05
4.28723e-05
4.87472e-05
5.55806e-05
5.57547e-05
5.47412e-05
5.30709e-05
5.14787e-05
5.05934e-05
5.03423e-05
5.05535e-05
5.08417e-05
5.04859e-05
4.89526e-05
4.57319e-05
4.06346e-05
3.45502e-05
3.01403e-05
2.89152e-05
3.13133e-05
3.6563e-05
4.28661e-05
4.82936e-05
5.1327e-05
4.99785e-05
4.83834e-05
4.67673e-05
4.5618e-05
4.51688e-05
4.5196e-05
4.55548e-05
4.58365e-05
4.51382e-05
4.2812e-05
3.83127e-05
3.23348e-05
2.72755e-05
2.57525e-05
2.82164e-05
3.36511e-05
3.98498e-05
4.47241e-05
4.74164e-05
4.74493e-05
4.57894e-05
4.42818e-05
4.29357e-05
4.21269e-05
4.19045e-05
4.20417e-05
4.24154e-05
4.24776e-05
4.11134e-05
3.77124e-05
3.1874e-05
2.59075e-05
2.36492e-05
2.59476e-05
3.14437e-05
3.76451e-05
4.22843e-05
4.46254e-05
4.51619e-05
4.47356e-05
4.32118e-05
4.1896e-05
4.07593e-05
4.01366e-05
3.9979e-05
4.00963e-05
4.03977e-05
4.01652e-05
3.81047e-05
3.38887e-05
2.70959e-05
2.18864e-05
2.25657e-05
2.79732e-05
3.4774e-05
3.99521e-05
4.25407e-05
4.32038e-05
4.28752e-05
4.28378e-05
4.14766e-05
4.03086e-05
3.9321e-05
3.88063e-05
3.86825e-05
3.87667e-05
3.89914e-05
3.84789e-05
3.59126e-05
3.11516e-05
2.41244e-05
2.09559e-05
2.4299e-05
3.11662e-05
3.72564e-05
4.06154e-05
4.16693e-05
4.15694e-05
4.10331e-05
4.16316e-05
4.04091e-05
3.93504e-05
3.84536e-05
3.79838e-05
3.78516e-05
3.78748e-05
3.7998e-05
3.7037e-05
3.3991e-05
2.89927e-05
2.23402e-05
2.14771e-05
2.68644e-05
3.38126e-05
3.8407e-05
4.02886e-05
4.05623e-05
4.02545e-05
3.97623e-05
4.07939e-05
3.96736e-05
3.86997e-05
3.78662e-05
3.7405e-05
3.72712e-05
3.72432e-05
3.7266e-05
3.58291e-05
3.21151e-05
2.72104e-05
2.17009e-05
2.31331e-05
2.95565e-05
3.55759e-05
3.86681e-05
3.96224e-05
3.95734e-05
3.92606e-05
3.88549e-05
4.02477e-05
3.92102e-05
3.83057e-05
3.7518e-05
3.70364e-05
3.68849e-05
3.68072e-05
3.67338e-05
3.5058e-05
3.03814e-05
2.54505e-05
2.15443e-05
2.52997e-05
3.19787e-05
3.66443e-05
3.85213e-05
3.89504e-05
3.87998e-05
3.85497e-05
3.82344e-05
3.98707e-05
3.88985e-05
3.8053e-05
3.73066e-05
3.68134e-05
3.66155e-05
3.65019e-05
3.63576e-05
3.46337e-05
2.86903e-05
2.40021e-05
2.26465e-05
2.82384e-05
3.41833e-05
3.73049e-05
3.82481e-05
3.8381e-05
3.82138e-05
3.80339e-05
3.77932e-05
3.96255e-05
3.87074e-05
3.79126e-05
3.72042e-05
3.67189e-05
3.64482e-05
3.62728e-05
3.60773e-05
3.41033e-05
2.73479e-05
2.18896e-05
2.1884e-05
2.95411e-05
3.51702e-05
3.73935e-05
3.78678e-05
3.79046e-05
3.77746e-05
3.76658e-05
3.7489e-05
3.94669e-05
3.85922e-05
3.78414e-05
3.71703e-05
3.67141e-05
3.63997e-05
3.61601e-05
3.59263e-05
3.37824e-05
2.66015e-05
2.24283e-05
2.37806e-05
3.18851e-05
3.63275e-05
3.75526e-05
3.76108e-05
3.75692e-05
3.74662e-05
3.741e-05
3.72814e-05
3.93741e-05
3.8535e-05
3.78216e-05
3.71845e-05
3.67674e-05
3.64466e-05
3.61869e-05
3.58775e-05
3.36468e-05
2.43454e-05
1.96651e-05
2.40358e-05
3.33123e-05
3.70359e-05
3.76163e-05
3.74136e-05
3.73328e-05
3.72542e-05
3.7238e-05
3.71467e-05
3.93286e-05
3.85182e-05
3.78358e-05
3.72299e-05
3.68582e-05
3.65667e-05
3.63636e-05
3.61065e-05
3.42388e-05
2.57401e-05
2.16502e-05
2.69651e-05
3.4783e-05
3.7508e-05
3.76299e-05
3.72802e-05
3.71867e-05
3.7124e-05
3.71325e-05
3.70673e-05
3.93187e-05
3.85318e-05
3.78742e-05
3.72943e-05
3.69654e-05
3.67119e-05
3.65883e-05
3.64658e-05
3.62642e-05
3.2397e-05
3.07387e-05
3.57038e-05
3.83232e-05
3.805e-05
3.74012e-05
3.70487e-05
3.70509e-05
3.70373e-05
3.70719e-05
3.70289e-05
3.93357e-05
3.85679e-05
3.79294e-05
3.73708e-05
3.70806e-05
3.68648e-05
3.68126e-05
3.68019e-05
3.70534e-05
3.72184e-05
3.66951e-05
3.74145e-05
3.73844e-05
3.70148e-05
3.69036e-05
3.68748e-05
3.69948e-05
3.70069e-05
3.70506e-05
3.70228e-05
3.93727e-05
3.86213e-05
3.79964e-05
3.74539e-05
3.71961e-05
3.70104e-05
3.70073e-05
3.70565e-05
3.73424e-05
3.79387e-05
3.79988e-05
3.77531e-05
3.72735e-05
3.69414e-05
3.69147e-05
3.69049e-05
3.70174e-05
3.70147e-05
3.70552e-05
3.704e-05
3.94247e-05
3.86874e-05
3.80714e-05
3.75402e-05
3.73099e-05
3.71472e-05
3.71772e-05
3.7258e-05
3.7495e-05
3.79253e-05
3.80207e-05
3.77371e-05
3.73312e-05
3.7066e-05
3.70374e-05
3.69849e-05
3.70668e-05
3.70419e-05
3.70765e-05
3.70744e-05
3.94875e-05
3.87628e-05
3.81513e-05
3.76273e-05
3.74206e-05
3.72746e-05
3.73263e-05
3.74251e-05
3.76138e-05
3.79174e-05
3.795e-05
3.77278e-05
3.74079e-05
3.71864e-05
3.71505e-05
3.70606e-05
3.71202e-05
3.70778e-05
3.71082e-05
3.71215e-05
3.95584e-05
3.88449e-05
3.82339e-05
3.77135e-05
3.7528e-05
3.73935e-05
3.74598e-05
3.75713e-05
3.77173e-05
3.79377e-05
3.79146e-05
3.77488e-05
3.74891e-05
3.72978e-05
3.72551e-05
3.71328e-05
3.71759e-05
3.71191e-05
3.71468e-05
3.71781e-05
3.96346e-05
3.89317e-05
3.83172e-05
3.77974e-05
3.76311e-05
3.7504e-05
3.75815e-05
3.77045e-05
3.7816e-05
3.7986e-05
3.7919e-05
3.77925e-05
3.75653e-05
3.73926e-05
3.73461e-05
3.71974e-05
3.72303e-05
3.71619e-05
3.71887e-05
3.72404e-05
3.97142e-05
3.90212e-05
3.83997e-05
3.78776e-05
3.77303e-05
3.76074e-05
3.76938e-05
3.78295e-05
3.79112e-05
3.80501e-05
3.79452e-05
3.7849e-05
3.76386e-05
3.74789e-05
3.7429e-05
3.72559e-05
3.72827e-05
3.72043e-05
3.72317e-05
3.73068e-05
3.97949e-05
3.91114e-05
3.8479e-05
3.79521e-05
3.78245e-05
3.77037e-05
3.77965e-05
3.79483e-05
3.80058e-05
3.81255e-05
3.79876e-05
3.79129e-05
3.77065e-05
3.75555e-05
3.75017e-05
3.73056e-05
3.73301e-05
3.72426e-05
3.72724e-05
3.73746e-05
3.98759e-05
3.92014e-05
3.85543e-05
3.80202e-05
3.79144e-05
3.77928e-05
3.78924e-05
3.80624e-05
3.80985e-05
3.82062e-05
3.80371e-05
3.79787e-05
3.77687e-05
3.76227e-05
3.75654e-05
3.73462e-05
3.73719e-05
3.72758e-05
3.73097e-05
3.74431e-05
3.99551e-05
3.92883e-05
3.86223e-05
3.808e-05
3.7998e-05
3.78721e-05
3.79794e-05
3.81705e-05
3.8188e-05
3.82885e-05
3.80883e-05
3.8042e-05
3.78226e-05
3.76793e-05
3.76181e-05
3.73746e-05
3.74036e-05
3.7299e-05
3.73406e-05
3.75095e-05
4.00319e-05
3.93708e-05
3.8682e-05
3.8131e-05
3.80746e-05
3.79425e-05
3.80576e-05
3.8272e-05
3.82749e-05
3.83674e-05
3.81378e-05
3.80975e-05
3.78664e-05
3.77249e-05
3.76586e-05
3.73905e-05
3.7425e-05
3.73123e-05
3.73652e-05
3.75728e-05
4.01026e-05
3.94458e-05
3.87288e-05
3.8168e-05
3.81418e-05
3.79999e-05
3.81258e-05
3.83658e-05
3.83566e-05
3.84381e-05
3.81797e-05
3.81404e-05
3.78968e-05
3.77561e-05
3.76841e-05
3.73889e-05
3.74312e-05
3.73094e-05
3.73775e-05
3.763e-05
4.01683e-05
3.95113e-05
3.87621e-05
3.81941e-05
3.82008e-05
3.8044e-05
3.81843e-05
3.845e-05
3.84301e-05
3.84943e-05
3.82088e-05
3.81657e-05
3.79102e-05
3.77693e-05
3.76917e-05
3.73693e-05
3.7421e-05
3.72911e-05
3.73813e-05
3.76815e-05
4.02232e-05
3.95628e-05
3.87749e-05
3.82012e-05
3.82444e-05
3.80693e-05
3.82269e-05
3.85225e-05
3.84947e-05
3.85337e-05
3.8223e-05
3.81713e-05
3.79042e-05
3.77641e-05
3.76781e-05
3.7326e-05
3.73885e-05
3.72496e-05
3.73686e-05
3.77219e-05
4.02669e-05
3.95979e-05
3.87683e-05
3.8192e-05
3.82743e-05
3.80777e-05
3.82575e-05
3.85783e-05
3.85455e-05
3.85466e-05
3.82152e-05
3.81475e-05
3.78737e-05
3.77336e-05
3.76356e-05
3.7255e-05
3.73316e-05
3.71868e-05
3.73424e-05
3.77498e-05
4.02952e-05
3.96121e-05
3.87321e-05
3.81586e-05
3.82841e-05
3.80593e-05
3.82668e-05
3.86163e-05
3.85795e-05
3.85362e-05
3.8184e-05
3.80987e-05
3.78183e-05
3.76784e-05
3.75648e-05
3.71523e-05
3.72455e-05
3.70924e-05
3.72946e-05
3.77621e-05
4.03007e-05
3.95912e-05
3.86634e-05
3.81043e-05
3.82682e-05
3.8014e-05
3.82589e-05
3.86241e-05
3.85894e-05
3.84812e-05
3.81191e-05
3.80031e-05
3.77258e-05
3.75838e-05
3.74474e-05
3.70074e-05
3.71155e-05
3.69626e-05
3.72273e-05
3.77475e-05
4.02847e-05
3.95447e-05
3.85569e-05
3.8021e-05
3.8232e-05
3.79344e-05
3.82244e-05
3.86092e-05
3.85752e-05
3.83985e-05
3.80244e-05
3.78797e-05
3.76025e-05
3.74589e-05
3.72939e-05
3.68198e-05
3.69525e-05
3.67952e-05
3.71345e-05
3.7718e-05
4.02279e-05
3.9433e-05
3.83986e-05
3.79083e-05
3.81433e-05
3.78115e-05
3.81655e-05
3.85393e-05
3.85193e-05
3.82462e-05
3.78793e-05
3.76838e-05
3.74225e-05
3.72666e-05
3.70601e-05
3.65633e-05
3.67099e-05
3.65677e-05
3.70085e-05
3.76327e-05
4.01504e-05
3.92981e-05
3.81972e-05
3.77689e-05
3.80425e-05
3.76535e-05
3.80833e-05
3.84541e-05
3.84366e-05
3.80712e-05
3.77046e-05
3.74713e-05
3.72149e-05
3.70511e-05
3.67846e-05
3.62554e-05
3.64378e-05
3.63036e-05
3.68629e-05
3.7543e-05
3.99998e-05
3.90385e-05
3.79073e-05
3.75829e-05
3.78295e-05
3.74185e-05
3.79642e-05
3.82648e-05
3.82846e-05
3.77801e-05
3.7456e-05
3.71419e-05
3.69257e-05
3.67219e-05
3.63783e-05
3.584e-05
3.60248e-05
3.5942e-05
3.66681e-05
3.73477e-05
3.97159e-05
3.85002e-05
3.74397e-05
3.73391e-05
3.73997e-05
3.70304e-05
3.77923e-05
3.78341e-05
3.79913e-05
3.71045e-05
3.70145e-05
3.64079e-05
3.64383e-05
3.60873e-05
3.55771e-05
3.52212e-05
3.53554e-05
3.54298e-05
3.64311e-05
3.69464e-05
2.6587e-05
1.03231e-05
2.23551e-05
3.33985e-05
1.10584e-05
2.25463e-05
3.40946e-05
1.21546e-05
2.56437e-05
9.65231e-06
2.38603e-05
8.22115e-06
2.22944e-05
6.81671e-06
7.44718e-06
2.19088e-05
1.05637e-05
2.1592e-05
3.2707e-05
1.24099e-05
9.36127e-05
8.9133e-05
8.7883e-05
8.92815e-05
9.22103e-05
9.55702e-05
9.86991e-05
0.000101355
0.000103551
0.000105389
0.000106962
0.000108322
0.000109493
0.000110422
0.000110718
0.000110111
0.000108151
0.000104342
9.86043e-05
9.19176e-05
6.3795e-05
6.79162e-05
7.22701e-05
7.55022e-05
7.71887e-05
7.75874e-05
7.71659e-05
7.65114e-05
7.59636e-05
7.54898e-05
7.48429e-05
7.37767e-05
7.21146e-05
6.97804e-05
6.67852e-05
6.29192e-05
5.86024e-05
5.48384e-05
5.28542e-05
5.35827e-05
5.58812e-05
5.92865e-05
6.08796e-05
6.07568e-05
5.9633e-05
5.84905e-05
5.7781e-05
5.75418e-05
5.75529e-05
5.72497e-05
5.61473e-05
5.39514e-05
5.04374e-05
4.55287e-05
4.00893e-05
3.55988e-05
3.34982e-05
3.4626e-05
3.87809e-05
4.47783e-05
5.27257e-05
5.30357e-05
5.21623e-05
5.06329e-05
4.91774e-05
4.83872e-05
4.81688e-05
4.83784e-05
4.8615e-05
4.80822e-05
4.62666e-05
4.27592e-05
3.74566e-05
3.12993e-05
2.69027e-05
2.5713e-05
2.81418e-05
3.34455e-05
3.98398e-05
4.53797e-05
4.89644e-05
4.77029e-05
4.62042e-05
4.46891e-05
4.36403e-05
4.32297e-05
4.32592e-05
4.35978e-05
4.38115e-05
4.28871e-05
4.02776e-05
3.55779e-05
2.95292e-05
2.45153e-05
2.30401e-05
2.55404e-05
3.10297e-05
3.73043e-05
4.22529e-05
4.50149e-05
4.53496e-05
4.3756e-05
4.23219e-05
4.10573e-05
4.03262e-05
4.01239e-05
4.02515e-05
4.05982e-05
4.05789e-05
3.89504e-05
3.53191e-05
2.94104e-05
2.34941e-05
2.12817e-05
2.35704e-05
2.90873e-05
3.53467e-05
4.00459e-05
4.24385e-05
4.30297e-05
4.27885e-05
4.13148e-05
4.00568e-05
3.89912e-05
3.84317e-05
3.82882e-05
3.8395e-05
3.86711e-05
3.83544e-05
3.60213e-05
3.16696e-05
2.4946e-05
1.9865e-05
2.05224e-05
2.58604e-05
3.26529e-05
3.78593e-05
4.04859e-05
4.11902e-05
4.09087e-05
4.09829e-05
3.96619e-05
3.8542e-05
3.76186e-05
3.71632e-05
3.70525e-05
3.7128e-05
3.73307e-05
3.6741e-05
3.39135e-05
2.91249e-05
2.22622e-05
1.91684e-05
2.24168e-05
2.91996e-05
3.52736e-05
3.86486e-05
3.97346e-05
3.96703e-05
3.91727e-05
3.98308e-05
3.86413e-05
3.76235e-05
3.67843e-05
3.63732e-05
3.62571e-05
3.62774e-05
3.63845e-05
3.53489e-05
3.2055e-05
2.71122e-05
2.06488e-05
1.97844e-05
2.5048e-05
3.19221e-05
3.65082e-05
3.84072e-05
3.87108e-05
3.8431e-05
3.79683e-05
3.90254e-05
3.79337e-05
3.69951e-05
3.62117e-05
3.58099e-05
3.56971e-05
3.56735e-05
3.56872e-05
3.41798e-05
3.02482e-05
2.54869e-05
2.01599e-05
2.14943e-05
2.77756e-05
3.37348e-05
3.68293e-05
3.78021e-05
3.77786e-05
3.74858e-05
3.71023e-05
3.84965e-05
3.74842e-05
3.66103e-05
3.58652e-05
3.54385e-05
3.53169e-05
3.52533e-05
3.51799e-05
3.34502e-05
2.8619e-05
2.38974e-05
2.01082e-05
2.36763e-05
3.02141e-05
3.48404e-05
3.67288e-05
3.7174e-05
3.70428e-05
3.68054e-05
3.65064e-05
3.81274e-05
3.71778e-05
3.63588e-05
3.5648e-05
3.51998e-05
3.50435e-05
3.49531e-05
3.48179e-05
3.30646e-05
2.70303e-05
2.25903e-05
2.12345e-05
2.65837e-05
3.24183e-05
3.55284e-05
3.649e-05
3.66348e-05
3.64811e-05
3.63078e-05
3.60789e-05
3.78833e-05
3.69857e-05
3.62141e-05
3.55351e-05
3.50816e-05
3.48596e-05
3.47172e-05
3.4541e-05
3.25582e-05
2.57662e-05
2.06331e-05
2.0513e-05
2.78412e-05
3.33926e-05
3.56345e-05
3.61337e-05
3.61783e-05
3.60566e-05
3.59491e-05
3.57804e-05
3.77213e-05
3.68655e-05
3.61349e-05
3.54881e-05
3.50526e-05
3.47824e-05
3.45783e-05
3.43755e-05
3.2246e-05
2.51193e-05
2.12647e-05
2.24034e-05
3.01585e-05
3.45614e-05
3.58181e-05
3.58973e-05
3.5856e-05
3.5756e-05
3.56965e-05
3.5573e-05
3.76219e-05
3.68002e-05
3.61046e-05
3.54877e-05
3.50828e-05
3.47945e-05
3.45614e-05
3.42905e-05
3.20761e-05
2.29406e-05
1.85471e-05
2.25642e-05
3.15149e-05
3.52639e-05
3.58954e-05
3.5712e-05
3.56257e-05
3.5546e-05
3.55229e-05
3.54345e-05
3.75675e-05
3.67733e-05
3.61067e-05
3.55177e-05
3.51517e-05
3.48815e-05
3.46886e-05
3.44602e-05
3.25736e-05
2.40111e-05
1.99353e-05
2.50561e-05
3.28185e-05
3.56981e-05
3.59074e-05
3.55814e-05
3.54795e-05
3.54133e-05
3.54122e-05
3.53484e-05
3.75469e-05
3.67753e-05
3.61319e-05
3.55663e-05
3.52381e-05
3.49988e-05
3.48743e-05
3.47611e-05
3.45051e-05
3.06026e-05
2.88612e-05
3.37215e-05
3.64438e-05
3.62933e-05
3.56905e-05
3.53475e-05
3.53377e-05
3.53201e-05
3.53437e-05
3.53009e-05
3.75522e-05
3.67988e-05
3.61734e-05
3.5627e-05
3.53335e-05
3.51278e-05
3.50682e-05
3.506e-05
3.52726e-05
3.5362e-05
3.47988e-05
3.55317e-05
3.55856e-05
3.52838e-05
3.51922e-05
3.51663e-05
3.52727e-05
3.5281e-05
3.53126e-05
3.52842e-05
3.75768e-05
3.6839e-05
3.62263e-05
3.56942e-05
3.54301e-05
3.52518e-05
3.52375e-05
3.52877e-05
3.55472e-05
3.61102e-05
3.61709e-05
3.597e-05
3.55378e-05
3.5229e-05
3.52001e-05
3.51872e-05
3.52847e-05
3.52787e-05
3.53061e-05
3.52897e-05
3.76158e-05
3.68913e-05
3.62871e-05
3.57649e-05
3.55256e-05
3.5369e-05
3.5385e-05
3.54672e-05
3.56853e-05
3.61054e-05
3.62134e-05
3.59684e-05
3.55936e-05
3.53408e-05
3.5308e-05
3.52542e-05
3.53219e-05
3.5295e-05
3.53156e-05
3.53117e-05
3.76654e-05
3.69527e-05
3.63528e-05
3.58367e-05
3.56187e-05
3.5478e-05
3.55136e-05
3.56148e-05
3.57898e-05
3.6093e-05
3.61407e-05
3.59493e-05
3.56535e-05
3.54426e-05
3.54046e-05
3.53166e-05
3.53629e-05
3.53198e-05
3.53351e-05
3.53459e-05
3.77229e-05
3.70208e-05
3.64216e-05
3.59078e-05
3.57089e-05
3.55797e-05
3.56279e-05
3.57428e-05
3.58787e-05
3.61038e-05
3.60963e-05
3.5956e-05
3.57172e-05
3.55364e-05
3.54938e-05
3.53762e-05
3.54065e-05
3.53503e-05
3.53615e-05
3.53895e-05
3.77858e-05
3.70935e-05
3.64915e-05
3.5977e-05
3.57955e-05
3.56739e-05
3.57314e-05
3.58587e-05
3.59625e-05
3.61412e-05
3.60898e-05
3.59854e-05
3.57774e-05
3.56152e-05
3.55709e-05
3.54293e-05
3.54495e-05
3.53828e-05
3.53913e-05
3.54386e-05
3.78521e-05
3.71691e-05
3.65611e-05
3.6043e-05
3.58785e-05
3.57618e-05
3.58259e-05
3.5967e-05
3.60429e-05
3.61931e-05
3.61043e-05
3.60279e-05
3.58362e-05
3.56871e-05
3.56413e-05
3.54773e-05
3.54912e-05
3.54155e-05
3.54223e-05
3.54918e-05
3.79198e-05
3.72459e-05
3.66283e-05
3.61039e-05
3.59573e-05
3.58435e-05
3.59116e-05
3.60695e-05
3.61226e-05
3.62561e-05
3.61349e-05
3.60786e-05
3.58911e-05
3.57507e-05
3.5703e-05
3.55177e-05
3.55288e-05
3.5445e-05
3.54513e-05
3.55467e-05
3.7988e-05
3.73229e-05
3.66924e-05
3.61589e-05
3.60321e-05
3.59188e-05
3.59909e-05
3.61679e-05
3.62006e-05
3.63245e-05
3.61727e-05
3.61321e-05
3.59415e-05
3.58062e-05
3.5757e-05
3.55501e-05
3.55616e-05
3.54701e-05
3.54771e-05
3.56024e-05
3.8055e-05
3.73975e-05
3.67503e-05
3.62065e-05
3.61016e-05
3.59856e-05
3.60619e-05
3.62609e-05
3.62758e-05
3.6395e-05
3.62128e-05
3.61843e-05
3.5985e-05
3.58526e-05
3.58016e-05
3.55718e-05
3.55856e-05
3.54865e-05
3.5497e-05
3.56564e-05
3.812e-05
3.74686e-05
3.68012e-05
3.62459e-05
3.61649e-05
3.60445e-05
3.61248e-05
3.63481e-05
3.63488e-05
3.64628e-05
3.62518e-05
3.62299e-05
3.60196e-05
3.58891e-05
3.58356e-05
3.55823e-05
3.56003e-05
3.5494e-05
3.5511e-05
3.57076e-05
3.81797e-05
3.75334e-05
3.68409e-05
3.62722e-05
3.62198e-05
3.6092e-05
3.61783e-05
3.64284e-05
3.64173e-05
3.65239e-05
3.62844e-05
3.62648e-05
3.60426e-05
3.5913e-05
3.58566e-05
3.5577e-05
3.56016e-05
3.54871e-05
3.55134e-05
3.57536e-05
3.82348e-05
3.75898e-05
3.68686e-05
3.62884e-05
3.62674e-05
3.61275e-05
3.62226e-05
3.65002e-05
3.64785e-05
3.6572e-05
3.63053e-05
3.62838e-05
3.60498e-05
3.59203e-05
3.58614e-05
3.5555e-05
3.55876e-05
3.54657e-05
3.55074e-05
3.57942e-05
3.82805e-05
3.76344e-05
3.68783e-05
3.62868e-05
3.63015e-05
3.61463e-05
3.62521e-05
3.65617e-05
3.6532e-05
3.66058e-05
3.6313e-05
3.62855e-05
3.60396e-05
3.59113e-05
3.58477e-05
3.55115e-05
3.55538e-05
3.54235e-05
3.54859e-05
3.58251e-05
3.83155e-05
3.7664e-05
3.687e-05
3.62692e-05
3.63229e-05
3.61496e-05
3.62698e-05
3.66076e-05
3.65725e-05
3.66149e-05
3.62998e-05
3.62595e-05
3.60059e-05
3.58784e-05
3.58068e-05
3.54414e-05
3.54968e-05
3.53607e-05
3.54506e-05
3.58441e-05
3.8337e-05
3.76759e-05
3.68356e-05
3.62293e-05
3.63268e-05
3.61292e-05
3.62676e-05
3.66381e-05
3.65981e-05
3.6604e-05
3.62655e-05
3.62118e-05
3.59497e-05
3.58237e-05
3.57414e-05
3.53428e-05
3.54137e-05
3.52695e-05
3.5395e-05
3.58496e-05
3.83359e-05
3.76543e-05
3.677e-05
3.61681e-05
3.63064e-05
3.60831e-05
3.62481e-05
3.66397e-05
3.66005e-05
3.65504e-05
3.61981e-05
3.61187e-05
3.58568e-05
3.57308e-05
3.56312e-05
3.52024e-05
3.52877e-05
3.51431e-05
3.53191e-05
3.58287e-05
3.83162e-05
3.76118e-05
3.66711e-05
3.60799e-05
3.62695e-05
3.6007e-05
3.62036e-05
3.66222e-05
3.65818e-05
3.64737e-05
3.6104e-05
3.60021e-05
3.57361e-05
3.56117e-05
3.54899e-05
3.50233e-05
3.51328e-05
3.49828e-05
3.52188e-05
3.5796e-05
3.8255e-05
3.75057e-05
3.65207e-05
3.59607e-05
3.61818e-05
3.58882e-05
3.61339e-05
3.65513e-05
3.65218e-05
3.6329e-05
3.59593e-05
3.58138e-05
3.55579e-05
3.54261e-05
3.527e-05
3.47751e-05
3.48993e-05
3.47618e-05
3.50835e-05
3.5708e-05
3.81768e-05
3.73831e-05
3.6333e-05
3.58169e-05
3.60879e-05
3.57401e-05
3.60427e-05
3.64704e-05
3.64393e-05
3.61675e-05
3.57886e-05
3.56141e-05
3.53557e-05
3.52231e-05
3.50154e-05
3.44797e-05
3.46408e-05
3.45081e-05
3.49295e-05
3.56198e-05
3.80229e-05
3.71362e-05
3.60545e-05
3.56228e-05
3.5883e-05
3.55133e-05
3.59117e-05
3.62863e-05
3.62858e-05
3.58894e-05
3.55409e-05
3.52963e-05
3.50683e-05
3.4906e-05
3.46306e-05
3.4075e-05
3.42418e-05
3.41543e-05
3.47227e-05
3.54261e-05
3.77462e-05
3.66433e-05
3.56102e-05
3.53707e-05
3.54918e-05
3.51465e-05
3.57288e-05
3.58921e-05
3.60029e-05
3.52698e-05
3.51143e-05
3.46176e-05
3.45963e-05
3.43186e-05
3.38864e-05
3.34755e-05
3.36097e-05
3.36576e-05
3.44721e-05
3.50531e-05
2.50242e-05
1.01267e-05
2.09981e-05
3.13034e-05
1.08992e-05
2.12122e-05
3.19481e-05
1.1987e-05
2.41052e-05
9.49134e-06
2.23654e-05
8.0761e-06
2.08633e-05
6.6683e-06
7.04258e-06
2.03671e-05
1.02469e-05
2.02746e-05
3.06433e-05
1.22013e-05
8.57315e-05
8.1399e-05
8.04992e-05
8.23688e-05
8.58302e-05
8.97333e-05
9.33485e-05
9.63905e-05
9.88595e-05
0.00010086
0.000102488
0.000103797
0.000104804
0.000105461
0.000105372
0.000104272
0.000101727
9.73028e-05
9.10323e-05
8.40231e-05
5.79871e-05
6.23841e-05
6.71046e-05
7.07361e-05
7.28056e-05
7.35121e-05
7.33397e-05
7.28698e-05
7.24342e-05
7.19763e-05
7.12214e-05
6.99188e-05
6.79143e-05
6.51616e-05
6.17328e-05
5.7474e-05
5.28705e-05
4.89622e-05
4.69661e-05
4.77807e-05
5.21221e-05
5.57236e-05
5.75258e-05
5.76076e-05
5.66724e-05
5.5694e-05
5.50826e-05
5.4895e-05
5.49017e-05
5.44913e-05