/*--------------------------------*- C++ -*----------------------------------*\
| =========                 |                                                 |
| \\      /  F ield         | OpenFOAM: The Open Source CFD Toolbox           |
|  \\    /   O peration     | Version:  2.4.0                                 |
|   \\  /    A nd           | Web:      www.OpenFOAM.org                      |
|    \\/     M anipulation  |                                                 |
\*---------------------------------------------------------------------------*/
FoamFile
{
    version     2.0;
    format      ascii;
    class       volScalarField;
    location    "40";
    object      nut;
}
// * * * * * * * * * * * * * * * * * * * * * * * * * * * * * * * * * * * * * //

dimensions      [0 2 -1 0 0 0 0];

internalField   nonuniform List<scalar> 
283312
(
2.74394e-06
2.55957e-06
2.50507e-06
2.55776e-06
2.67033e-06
2.79553e-06
2.90595e-06
2.99558e-06
3.06817e-06
3.13105e-06
3.19265e-06
3.25789e-06
3.32529e-06
3.38615e-06
3.42147e-06
3.4194e-06
3.36179e-06
3.22402e-06
2.99554e-06
2.71261e-06
1.46591e-06
1.64292e-06
1.82963e-06
1.96739e-06
2.0306e-06
2.03036e-06
1.99024e-06
1.93841e-06
1.89185e-06
1.85312e-06
1.81718e-06
1.77465e-06
1.7154e-06
1.63643e-06
1.53568e-06
1.40874e-06
1.27075e-06
1.15425e-06
1.09652e-06
1.12504e-06
1.17658e-06
1.32316e-06
1.3974e-06
1.39495e-06
1.3435e-06
1.28563e-06
1.24609e-06
1.22458e-06
1.21139e-06
1.1902e-06
1.14947e-06
1.07927e-06
9.71923e-07
8.27041e-07
6.75736e-07
5.59505e-07
5.078e-07
5.35507e-07
6.44946e-07
8.2078e-07
1.09406e-06
1.12885e-06
1.10786e-06
1.05259e-06
9.92821e-07
9.54843e-07
9.38836e-07
9.37159e-07
9.32041e-07
9.04586e-07
8.45938e-07
7.43647e-07
5.9971e-07
4.46486e-07
3.48229e-07
3.22863e-07
3.73515e-07
4.98323e-07
6.74621e-07
8.51716e-07
9.93563e-07
9.68922e-07
9.23601e-07
8.70289e-07
8.2753e-07
8.07377e-07
8.02204e-07
8.06125e-07
7.96566e-07
7.56171e-07
6.77355e-07
5.49137e-07
4.02584e-07
2.94967e-07
2.66331e-07
3.15993e-07
4.3981e-07
6.08497e-07
7.65515e-07
8.65808e-07
8.91847e-07
8.53402e-07
8.09841e-07
7.66591e-07
7.36757e-07
7.25196e-07
7.2442e-07
7.29401e-07
7.08784e-07
6.48218e-07
5.46798e-07
3.98443e-07
2.71783e-07
2.30219e-07
2.75288e-07
3.96554e-07
5.61214e-07
7.07725e-07
7.94437e-07
8.22176e-07
8.20277e-07
7.84882e-07
7.47137e-07
7.11529e-07
6.89116e-07
6.80485e-07
6.79825e-07
6.83207e-07
6.50517e-07
5.70785e-07
4.588e-07
3.03041e-07
2.02886e-07
2.14964e-07
3.23657e-07
4.92355e-07
6.47921e-07
7.39216e-07
7.70141e-07
7.6619e-07
7.70842e-07
7.39618e-07
7.06236e-07
6.76139e-07
6.58507e-07
6.51789e-07
6.50924e-07
6.52717e-07
6.09011e-07
5.15262e-07
3.95293e-07
2.43767e-07
1.87307e-07
2.50295e-07
4.05385e-07
5.75419e-07
6.85953e-07
7.28068e-07
7.3142e-07
7.18953e-07
7.40192e-07
7.12501e-07
6.8225e-07
6.55536e-07
6.4043e-07
6.3462e-07
6.32649e-07
6.31911e-07
5.69562e-07
4.6348e-07
3.46202e-07
2.12503e-07
1.98973e-07
3.086e-07
4.83527e-07
6.22821e-07
6.88721e-07
7.03657e-07
6.98387e-07
6.86408e-07
7.19057e-07
6.93834e-07
6.65942e-07
6.41593e-07
6.2739e-07
6.23167e-07
6.20394e-07
6.17127e-07
5.35486e-07
4.15133e-07
3.07072e-07
2.00621e-07
2.31539e-07
3.76536e-07
5.4225e-07
6.41367e-07
6.76757e-07
6.79713e-07
6.73029e-07
6.63222e-07
7.05394e-07
6.82159e-07
6.56127e-07
6.33437e-07
6.19021e-07
6.15786e-07
6.12572e-07
6.07034e-07
5.18081e-07
3.75814e-07
2.71101e-07
1.96732e-07
2.77119e-07
4.44014e-07
5.81819e-07
6.44693e-07
6.61889e-07
6.60467e-07
6.54806e-07
6.47426e-07
6.95885e-07
6.74215e-07
6.49695e-07
6.28434e-07
6.13942e-07
6.09851e-07
6.06951e-07
6.00378e-07
5.12468e-07
3.40513e-07
2.39824e-07
2.1337e-07
3.44076e-07
5.10307e-07
6.08536e-07
6.41992e-07
6.48465e-07
6.4571e-07
6.41475e-07
6.36149e-07
6.89609e-07
6.69262e-07
6.45982e-07
6.2597e-07
6.11855e-07
6.05647e-07
6.01383e-07
5.95615e-07
4.99303e-07
3.09948e-07
2.04608e-07
1.98738e-07
3.79337e-07
5.45281e-07
6.16848e-07
6.34447e-07
6.36698e-07
6.34511e-07
6.3183e-07
6.28313e-07
6.85412e-07
6.66156e-07
6.43895e-07
6.25049e-07
6.11796e-07
6.04463e-07
5.97929e-07
5.93102e-07
4.91582e-07
2.91911e-07
2.08927e-07
2.28529e-07
4.41676e-07
5.84741e-07
6.2573e-07
6.29443e-07
6.28352e-07
6.26619e-07
6.25009e-07
6.22898e-07
6.82784e-07
6.64462e-07
6.43006e-07
6.25198e-07
6.12978e-07
6.05784e-07
5.98325e-07
5.91575e-07
4.87833e-07
2.47954e-07
1.64286e-07
2.33726e-07
4.85584e-07
6.11373e-07
6.30779e-07
6.25435e-07
6.22391e-07
6.2116e-07
6.20275e-07
6.19306e-07
6.81281e-07
6.63757e-07
6.42904e-07
6.26026e-07
6.14944e-07
6.08821e-07
6.02804e-07
5.97916e-07
5.04399e-07
2.67967e-07
1.92249e-07
3.04143e-07
5.364e-07
6.31011e-07
6.33506e-07
6.22712e-07
6.18701e-07
6.17809e-07
6.17213e-07
6.17111e-07
6.80608e-07
6.63795e-07
6.43349e-07
6.27231e-07
6.17174e-07
6.12308e-07
6.08128e-07
6.08121e-07
5.90177e-07
4.3071e-07
3.71642e-07
5.48374e-07
6.52784e-07
6.50796e-07
6.27429e-07
6.16333e-07
6.14943e-07
6.15491e-07
6.15238e-07
6.15945e-07
6.80561e-07
6.64399e-07
6.44182e-07
6.28665e-07
6.19503e-07
6.1589e-07
6.13212e-07
6.17237e-07
6.20493e-07
6.20149e-07
5.8183e-07
6.29518e-07
6.29508e-07
6.19195e-07
6.12232e-07
6.11266e-07
6.13324e-07
6.14657e-07
6.14229e-07
6.15601e-07
6.80967e-07
6.65439e-07
6.45284e-07
6.3019e-07
6.2176e-07
6.19159e-07
6.17313e-07
6.23876e-07
6.28884e-07
6.53172e-07
6.44888e-07
6.46387e-07
6.25616e-07
6.16325e-07
6.12363e-07
6.12209e-07
6.13919e-07
6.14808e-07
6.13812e-07
6.15842e-07
6.81697e-07
6.66805e-07
6.46571e-07
6.31729e-07
6.23917e-07
6.22119e-07
6.20605e-07
6.28845e-07
6.3172e-07
6.52461e-07
6.48514e-07
6.45578e-07
6.2637e-07
6.19819e-07
6.15984e-07
6.14554e-07
6.15188e-07
6.15405e-07
6.13735e-07
6.16517e-07
6.82647e-07
6.68411e-07
6.47964e-07
6.33221e-07
6.25965e-07
6.2477e-07
6.23234e-07
6.32819e-07
6.33327e-07
6.50907e-07
6.44902e-07
6.44174e-07
6.27706e-07
6.23191e-07
6.19236e-07
6.16603e-07
6.16449e-07
6.16131e-07
6.13817e-07
6.17502e-07
6.8374e-07
6.70202e-07
6.49414e-07
6.34614e-07
6.27916e-07
6.27154e-07
6.25365e-07
6.36196e-07
6.34418e-07
6.50359e-07
6.41904e-07
6.43806e-07
6.29134e-07
6.26183e-07
6.22122e-07
6.18382e-07
6.17676e-07
6.16914e-07
6.13966e-07
6.18727e-07
6.849e-07
6.72121e-07
6.50864e-07
6.35858e-07
6.2976e-07
6.29279e-07
6.2711e-07
6.39253e-07
6.35362e-07
6.50831e-07
6.40108e-07
6.44269e-07
6.30355e-07
6.28583e-07
6.24517e-07
6.19783e-07
6.18779e-07
6.17636e-07
6.14072e-07
6.20088e-07
6.86071e-07
6.74122e-07
6.52273e-07
6.3691e-07
6.31508e-07
6.31172e-07
6.28529e-07
6.42127e-07
6.36198e-07
6.51933e-07
6.39017e-07
6.45241e-07
6.31434e-07
6.30654e-07
6.26618e-07
6.20872e-07
6.19763e-07
6.18256e-07
6.14077e-07
6.21547e-07
6.87185e-07
6.76148e-07
6.53569e-07
6.37688e-07
6.33149e-07
6.32831e-07
6.29608e-07
6.44876e-07
6.36998e-07
6.53496e-07
6.38415e-07
6.46517e-07
6.32284e-07
6.32368e-07
6.28379e-07
6.21567e-07
6.20546e-07
6.18656e-07
6.1387e-07
6.23032e-07
6.8821e-07
6.78181e-07
6.54727e-07
6.38162e-07
6.34702e-07
6.34245e-07
6.30413e-07
6.47546e-07
6.37724e-07
6.55326e-07
6.38016e-07
6.47914e-07
6.32892e-07
6.3375e-07
6.29847e-07
6.2186e-07
6.21127e-07
6.18812e-07
6.13419e-07
6.24529e-07
6.89072e-07
6.80128e-07
6.55636e-07
6.38248e-07
6.36122e-07
6.35329e-07
6.30866e-07
6.50092e-07
6.38317e-07
6.57272e-07
6.37621e-07
6.4926e-07
6.3317e-07
6.34762e-07
6.30972e-07
6.21645e-07
6.21369e-07
6.18563e-07
6.1261e-07
6.25953e-07
6.89758e-07
6.8197e-07
6.56266e-07
6.37924e-07
6.37412e-07
6.36097e-07
6.3096e-07
6.52484e-07
6.38785e-07
6.59148e-07
6.37108e-07
6.50363e-07
6.33045e-07
6.35395e-07
6.31725e-07
6.20911e-07
6.2128e-07
6.17905e-07
6.11454e-07
6.2729e-07
6.90131e-07
6.83599e-07
6.56451e-07
6.36987e-07
6.3848e-07
6.36396e-07
6.30619e-07
6.54674e-07
6.39029e-07
6.60764e-07
6.36268e-07
6.51041e-07
6.32384e-07
6.35535e-07
6.32023e-07
6.1948e-07
6.20707e-07
6.16635e-07
6.09741e-07
6.28437e-07
6.9022e-07
6.84961e-07
6.56169e-07
6.35527e-07
6.39391e-07
6.3622e-07
6.29855e-07
6.56601e-07
6.38965e-07
6.6186e-07
6.34932e-07
6.51095e-07
6.31075e-07
6.35086e-07
6.31764e-07
6.17324e-07
6.19611e-07
6.1476e-07
6.07583e-07
6.29405e-07
6.89829e-07
6.85926e-07
6.55168e-07
6.33249e-07
6.39946e-07
6.35356e-07
6.28427e-07
6.5819e-07
6.38532e-07
6.62384e-07
6.32994e-07
6.50476e-07
6.29006e-07
6.34011e-07
6.30871e-07
6.14259e-07
6.1784e-07
6.1203e-07
6.04709e-07
6.30043e-07
6.88927e-07
6.86367e-07
6.53462e-07
6.30234e-07
6.40169e-07
6.33862e-07
6.26461e-07
6.59238e-07
6.37598e-07
6.61925e-07
6.30256e-07
6.48796e-07
6.26016e-07
6.32108e-07
6.29035e-07
6.10119e-07
6.15266e-07
6.08481e-07
6.01217e-07
6.30254e-07
6.8736e-07
6.86238e-07
6.50718e-07
6.2619e-07
6.39943e-07
6.31397e-07
6.2362e-07
6.59772e-07
6.36034e-07
6.6071e-07
6.26654e-07
6.46324e-07
6.2207e-07
6.29416e-07
6.2638e-07
6.04801e-07
6.1186e-07
6.03789e-07
5.96817e-07
6.30009e-07
6.84866e-07
6.84866e-07
6.46806e-07
6.21245e-07
6.38969e-07
6.27967e-07
6.20066e-07
6.59217e-07
6.33613e-07
6.57796e-07
6.21857e-07
6.42114e-07
6.1677e-07
6.2542e-07
6.22145e-07
5.97915e-07
6.06961e-07
5.97811e-07
5.91611e-07
6.28791e-07
6.8152e-07
6.82924e-07
6.41535e-07
6.15086e-07
6.377e-07
6.23286e-07
6.15415e-07
6.58069e-07
6.30342e-07
6.54126e-07
6.16018e-07
6.37171e-07
6.10309e-07
6.20554e-07
6.16902e-07
5.89514e-07
6.01255e-07
5.90475e-07
5.85356e-07
6.2723e-07
6.76589e-07
6.78459e-07
6.34463e-07
6.07788e-07
6.34607e-07
6.17138e-07
6.0985e-07
6.54789e-07
6.25629e-07
6.47722e-07
6.08463e-07
6.29463e-07
6.01845e-07
6.13354e-07
6.08889e-07
5.78688e-07
5.92737e-07
5.81123e-07
5.77909e-07
6.23568e-07
6.70866e-07
6.7391e-07
6.25821e-07
5.99304e-07
6.31889e-07
6.09652e-07
6.03235e-07
6.51422e-07
6.2001e-07
6.40999e-07
5.99908e-07
6.21671e-07
5.92298e-07
6.05831e-07
5.99796e-07
5.66123e-07
5.83874e-07
5.70447e-07
5.6958e-07
6.20142e-07
6.62449e-07
6.64241e-07
6.1421e-07
5.89285e-07
6.24731e-07
5.99659e-07
5.95408e-07
6.4383e-07
6.12055e-07
6.29639e-07
5.88936e-07
6.09314e-07
5.79964e-07
5.94072e-07
5.86198e-07
5.50051e-07
5.69884e-07
5.56704e-07
5.59705e-07
6.12574e-07
6.48452e-07
6.4035e-07
5.95235e-07
5.76948e-07
6.06456e-07
5.83164e-07
5.85469e-07
6.2312e-07
5.98706e-07
5.98342e-07
5.70695e-07
5.76206e-07
5.59842e-07
5.67181e-07
5.5377e-07
5.26639e-07
5.4421e-07
5.36916e-07
5.48164e-07
5.93781e-07
2.18287e-07
1.60061e-08
1.54726e-07
4.44711e-07
1.84739e-08
1.57857e-07
4.60068e-07
2.33138e-08
2.14945e-07
1.39942e-08
1.83836e-07
9.59742e-09
1.57896e-07
6.1981e-09
9.09555e-09
1.55434e-07
1.8605e-08
1.46763e-07
4.25353e-07
2.50699e-08
2.34206e-06
2.17119e-06
2.12943e-06
2.19443e-06
2.32133e-06
2.46338e-06
2.59189e-06
2.69715e-06
2.78082e-06
2.84935e-06
2.91059e-06
2.9695e-06
3.0253e-06
3.07192e-06
3.08907e-06
3.06609e-06
2.98664e-06
2.8301e-06
2.59177e-06
2.31192e-06
1.22143e-06
1.39117e-06
1.57724e-06
1.72342e-06
1.8016e-06
1.81879e-06
1.79395e-06
1.75416e-06
1.71558e-06
1.67998e-06
1.64177e-06
1.59259e-06
1.52445e-06
1.43453e-06
1.32559e-06
1.19425e-06
1.05642e-06
9.42857e-07
8.86616e-07
9.11446e-07
1.02193e-06
1.16705e-06
1.24657e-06
1.25408e-06
1.2139e-06
1.1662e-06
1.13274e-06
1.11439e-06
1.10192e-06
1.07813e-06
1.03186e-06
9.56023e-07
8.46098e-07
7.04006e-07
5.59925e-07
4.51961e-07
4.04476e-07
4.28804e-07
5.27673e-07
6.90114e-07
9.80454e-07
1.01813e-06
1.00342e-06
9.56142e-07
9.04003e-07
8.7144e-07
8.57345e-07
8.55701e-07
8.49148e-07
8.17217e-07
7.53262e-07
6.49843e-07
5.11507e-07
3.69308e-07
2.80145e-07
2.57356e-07
3.02625e-07
4.16349e-07
5.80564e-07
7.49052e-07
9.02629e-07
8.818e-07
8.41808e-07
7.94333e-07
7.56782e-07
7.38829e-07
7.33964e-07
7.3708e-07
7.25813e-07
6.80356e-07
5.98344e-07
4.74258e-07
3.37731e-07
2.40346e-07
2.14769e-07
2.59622e-07
3.73482e-07
5.31757e-07
6.81498e-07
7.78969e-07
8.14318e-07
7.79337e-07
7.39977e-07
7.01155e-07
6.75092e-07
6.6469e-07
6.63655e-07
6.67603e-07
6.45468e-07
5.80136e-07
4.79189e-07
3.40323e-07
2.24998e-07
1.87625e-07
2.27802e-07
3.39112e-07
4.93824e-07
6.33754e-07
7.17866e-07
7.46257e-07
7.50678e-07
7.17995e-07
6.83575e-07
6.51576e-07
6.32045e-07
6.2424e-07
6.23292e-07
6.25783e-07
5.92176e-07
5.08782e-07
4.00616e-07
2.57956e-07
1.68122e-07
1.78438e-07
2.76675e-07
4.33628e-07
5.81279e-07
6.6936e-07
7.00266e-07
6.98051e-07
7.06015e-07
6.77003e-07
6.46417e-07
6.19394e-07
6.04306e-07
5.98269e-07
5.9718e-07
5.98261e-07
5.54485e-07
4.58306e-07
3.45356e-07
2.08175e-07
1.57171e-07
2.13183e-07
3.55604e-07
5.15499e-07
6.21135e-07
6.62405e-07
6.66739e-07
6.56003e-07
6.78186e-07
6.52355e-07
6.24529e-07
6.00499e-07
5.87789e-07
5.82643e-07
5.80665e-07
5.79509e-07
5.18152e-07
4.10934e-07
3.02392e-07
1.81872e-07
1.6909e-07
2.68295e-07
4.30864e-07
5.6288e-07
6.26354e-07
6.4158e-07
6.37375e-07
6.26766e-07
6.5878e-07
6.35204e-07
6.0947e-07
5.87455e-07
5.75606e-07
5.72074e-07
5.69546e-07
5.66187e-07
4.86678e-07
3.67013e-07
2.68752e-07
1.73113e-07
1.99921e-07
3.32519e-07
4.87723e-07
5.82266e-07
6.16703e-07
6.20293e-07
6.14467e-07
6.05691e-07
6.46134e-07
6.24383e-07
6.00295e-07
5.79645e-07
5.67349e-07
5.65082e-07
5.62375e-07
5.5711e-07
4.71145e-07
3.32311e-07
2.38214e-07
1.71096e-07
2.42563e-07
3.96443e-07
5.26352e-07
5.86772e-07
6.03745e-07
6.02934e-07
5.97864e-07
5.91226e-07
6.37191e-07
6.16882e-07
5.94138e-07
5.74651e-07
5.61913e-07
5.59279e-07
5.571e-07
5.5104e-07
4.6676e-07
3.01273e-07
2.11337e-07
1.86906e-07
3.04592e-07
4.5916e-07
5.52574e-07
5.85156e-07
5.91739e-07
5.8946e-07
5.85579e-07
5.80765e-07
6.31182e-07
6.12093e-07
5.90454e-07
5.7199e-07
5.59256e-07
5.547e-07
5.51607e-07
5.46486e-07
4.54846e-07
2.74217e-07
1.80933e-07
1.73971e-07
3.36649e-07
4.91953e-07
5.60981e-07
5.78602e-07
5.81023e-07
5.79125e-07
5.76592e-07
5.73397e-07
6.27042e-07
6.08956e-07
5.88227e-07
5.70736e-07
5.58541e-07
5.5264e-07
5.4747e-07
5.43624e-07
4.47756e-07
2.5925e-07
1.86396e-07
2.01724e-07
3.94616e-07
5.29722e-07
5.70152e-07
5.74381e-07
5.73389e-07
5.71764e-07
5.70137e-07
5.68194e-07
6.24329e-07
6.07102e-07
5.87094e-07
5.70484e-07
5.59062e-07
5.52863e-07
5.46505e-07
5.4107e-07
4.43342e-07
2.19552e-07
1.45219e-07
2.05038e-07
4.34227e-07
5.54896e-07
5.7538e-07
5.70879e-07
5.67849e-07
5.66581e-07
5.65562e-07
5.64637e-07
6.22636e-07
6.06138e-07
5.86672e-07
5.70862e-07
5.60368e-07
5.54899e-07
5.4942e-07
5.45324e-07
4.56654e-07
2.32971e-07
1.62826e-07
2.62528e-07
4.77991e-07
5.72605e-07
5.77984e-07
5.68355e-07
5.64312e-07
5.63293e-07
5.62494e-07
5.62338e-07
6.21703e-07
6.05852e-07
5.86754e-07
5.71601e-07
5.61965e-07
5.57509e-07
5.53515e-07
5.53504e-07
5.3524e-07
3.84303e-07
3.27012e-07
4.88808e-07
5.9114e-07
5.93244e-07
5.72551e-07
5.62175e-07
5.60543e-07
5.60887e-07
5.60395e-07
5.60968e-07
6.21344e-07
6.06081e-07
5.87196e-07
5.72561e-07
5.63688e-07
5.60312e-07
5.57615e-07
5.61234e-07
5.63436e-07
5.60803e-07
5.24327e-07
5.68835e-07
5.71758e-07
5.63878e-07
5.57993e-07
5.57109e-07
5.58744e-07
5.59846e-07
5.59177e-07
5.60342e-07
6.21406e-07
6.06712e-07
5.8789e-07
5.73615e-07
5.65368e-07
5.62887e-07
5.6091e-07
5.66877e-07
5.71145e-07
5.92963e-07
5.85883e-07
5.88123e-07
5.70127e-07
5.61755e-07
5.5805e-07
5.57758e-07
5.59024e-07
5.59716e-07
5.58499e-07
5.60251e-07
6.21771e-07
6.07645e-07
5.88762e-07
5.74692e-07
5.66973e-07
5.65217e-07
5.63521e-07
5.71057e-07
5.73584e-07
5.92649e-07
5.89902e-07
5.87871e-07
5.70873e-07
5.64748e-07
5.61101e-07
5.59644e-07
5.59909e-07
5.59994e-07
5.58131e-07
5.60556e-07
6.22345e-07
6.08802e-07
5.89742e-07
5.75736e-07
5.6849e-07
5.67291e-07
5.65551e-07
5.74349e-07
5.74839e-07
5.91118e-07
5.86465e-07
5.8627e-07
5.71697e-07
5.67433e-07
5.63744e-07
5.61241e-07
5.60782e-07
5.60398e-07
5.57913e-07
5.61148e-07
6.23058e-07
6.10133e-07
5.90786e-07
5.76699e-07
5.69929e-07
5.69139e-07
5.67142e-07
5.77103e-07
5.75587e-07
5.90377e-07
5.83423e-07
5.85512e-07
5.72585e-07
5.69785e-07
5.66072e-07
5.62608e-07
5.61635e-07
5.60868e-07
5.57764e-07
5.61963e-07
6.23842e-07
6.11591e-07
5.91846e-07
5.77536e-07
5.71279e-07
5.7077e-07
5.68392e-07
5.7957e-07
5.76188e-07
5.9055e-07
5.81485e-07
5.85547e-07
5.73331e-07
5.71629e-07
5.67977e-07
5.63655e-07
5.62392e-07
5.61301e-07
5.57585e-07
5.62908e-07
6.24645e-07
6.13131e-07
5.92886e-07
5.78209e-07
5.72549e-07
5.72203e-07
5.6935e-07
5.81872e-07
5.76681e-07
5.91284e-07
5.80201e-07
5.86079e-07
5.73993e-07
5.73208e-07
5.69643e-07
5.6444e-07
5.63057e-07
5.61659e-07
5.5732e-07
5.63945e-07
6.25409e-07
6.14708e-07
5.93845e-07
5.78647e-07
5.73733e-07
5.73444e-07
5.70006e-07
5.84067e-07
5.77143e-07
5.92445e-07
5.79389e-07
5.86929e-07
5.7449e-07
5.74494e-07
5.71031e-07
5.64893e-07
5.6356e-07
5.6184e-07
5.56872e-07
5.65015e-07
6.26102e-07
6.16304e-07
5.94699e-07
5.78818e-07
5.74846e-07
5.74479e-07
5.70418e-07
5.86194e-07
5.77539e-07
5.93857e-07
5.7878e-07
5.8792e-07
5.74801e-07
5.75504e-07
5.72179e-07
5.65004e-07
5.63894e-07
5.61817e-07
5.56207e-07
5.66098e-07
6.26662e-07
6.17842e-07
5.95357e-07
5.78652e-07
5.75851e-07
5.75238e-07
5.7052e-07
5.88219e-07
5.77827e-07
5.95395e-07
5.78201e-07
5.889e-07
5.74848e-07
5.76209e-07
5.73049e-07
5.64682e-07
5.63943e-07
5.61451e-07
5.55225e-07
5.67123e-07
6.27074e-07
6.193e-07
5.95785e-07
5.78121e-07
5.76748e-07
5.75731e-07
5.70301e-07
5.90114e-07
5.7801e-07
5.96884e-07
5.77533e-07
5.89684e-07
5.74552e-07
5.7659e-07
5.73607e-07
5.63908e-07
5.63707e-07
5.60731e-07
5.53928e-07
5.68075e-07
6.27222e-07
6.20594e-07
5.95846e-07
5.77049e-07
5.77462e-07
5.75831e-07
5.69698e-07
5.91842e-07
5.7801e-07
5.98171e-07
5.76597e-07
5.90123e-07
5.73804e-07
5.76557e-07
5.73791e-07
5.62535e-07
5.6306e-07
5.59486e-07
5.52135e-07
5.68867e-07
6.27119e-07
6.21664e-07
5.95507e-07
5.75506e-07
5.78043e-07
5.75521e-07
5.68714e-07
5.93345e-07
5.7774e-07
5.99012e-07
5.75225e-07
5.9002e-07
5.72482e-07
5.76003e-07
5.73491e-07
5.60515e-07
5.61947e-07
5.57703e-07
5.49932e-07
5.69499e-07
6.26607e-07
6.22416e-07
5.94565e-07
5.73238e-07
5.78329e-07
5.74628e-07
5.67139e-07
5.94564e-07
5.77163e-07
5.99377e-07
5.73339e-07
5.8935e-07
5.70505e-07
5.74917e-07
5.72662e-07
5.57707e-07
5.60258e-07
5.5518e-07
5.47088e-07
5.69855e-07
6.25631e-07
6.22708e-07
5.92996e-07
5.70289e-07
5.7832e-07
5.7318e-07
5.65069e-07
5.95302e-07
5.76138e-07
5.98874e-07
5.70728e-07
5.8773e-07
5.67685e-07
5.73082e-07
5.70987e-07
5.53915e-07
5.57835e-07
5.51907e-07
5.4366e-07
5.69818e-07
6.24086e-07
6.22543e-07
5.90547e-07
5.66426e-07
5.77945e-07
5.70906e-07
5.62219e-07
5.95612e-07
5.74578e-07
5.97743e-07
5.67367e-07
5.85443e-07
5.64034e-07
5.70579e-07
5.68631e-07
5.49097e-07
5.547e-07
5.4764e-07
5.39418e-07
5.69399e-07
6.21676e-07
6.21252e-07
5.87026e-07
5.61709e-07
5.76891e-07
5.67755e-07
5.58696e-07
5.94932e-07
5.72231e-07
5.95076e-07
5.62893e-07
5.81563e-07
5.59112e-07
5.66871e-07
5.64826e-07
5.42814e-07
5.5018e-07
5.42164e-07
5.34395e-07
5.68078e-07
6.18536e-07
6.19526e-07
5.82345e-07
5.55908e-07
5.75639e-07
5.63544e-07
5.54196e-07
5.93776e-07
5.69163e-07
5.91801e-07
5.57517e-07
5.77085e-07
5.53175e-07
5.62438e-07
5.60186e-07
5.35198e-07
5.44977e-07
5.355e-07
5.28423e-07
5.66496e-07
6.13882e-07
6.15472e-07
5.7596e-07
5.48998e-07
5.72712e-07
5.57962e-07
5.48814e-07
5.90665e-07
5.64742e-07
5.86007e-07
5.50504e-07
5.70036e-07
5.45323e-07
5.55823e-07
5.52966e-07
5.25281e-07
5.37144e-07
5.26905e-07
5.2128e-07
5.62959e-07
6.08579e-07
6.11472e-07
5.68242e-07
5.41027e-07
5.70242e-07
5.5127e-07
5.425e-07
5.87582e-07
5.59575e-07
5.80039e-07
5.42641e-07
5.63007e-07
5.36541e-07
5.49021e-07
5.44881e-07
5.13816e-07
5.29046e-07
5.17154e-07
5.13335e-07
5.59718e-07
6.00648e-07
6.02675e-07
5.57628e-07
5.3151e-07
5.63657e-07
5.42145e-07
5.34969e-07
5.80575e-07
5.52149e-07
5.69707e-07
5.32394e-07
5.51661e-07
5.25022e-07
5.38224e-07
5.32541e-07
4.98972e-07
5.16135e-07
5.04409e-07
5.03837e-07
5.52611e-07
5.87773e-07
5.81926e-07
5.40431e-07
5.19793e-07
5.47957e-07
5.27313e-07
5.25467e-07
5.62687e-07
5.39986e-07
5.42462e-07
5.1568e-07
5.22666e-07
5.0655e-07
5.14721e-07
5.03917e-07
4.77424e-07
4.93205e-07
4.86208e-07
4.92721e-07
5.36178e-07
1.94898e-07
1.61516e-08
1.37793e-07
3.91734e-07
1.88848e-08
1.41128e-07
4.05187e-07
2.38536e-08
1.91419e-07
1.42014e-08
1.62781e-07
9.72559e-09
1.3938e-07
6.22718e-09
8.41251e-09
1.35371e-07
1.83069e-08
1.30674e-07
3.74439e-07
2.54631e-08
1.96145e-06
1.80809e-06
1.78017e-06
1.85579e-06
1.99334e-06
2.14832e-06
2.29079e-06
2.40831e-06
2.5007e-06
2.57343e-06
2.63366e-06
2.68607e-06
2.73037e-06
2.76193e-06
2.76099e-06
2.71791e-06
2.61842e-06
2.44642e-06
2.20331e-06
1.93249e-06
1.00548e-06
1.16672e-06
1.34917e-06
1.49973e-06
1.58886e-06
1.61918e-06
1.60711e-06
1.57784e-06
1.5464e-06
1.51367e-06
1.4735e-06
1.41853e-06
1.3429e-06
1.24511e-06
1.13082e-06
9.98306e-07
8.64096e-07
7.56627e-07
7.0431e-07
7.26882e-07
8.8329e-07
1.02465e-06
1.10685e-06
1.12203e-06
1.0915e-06
1.05277e-06
1.02476e-06
1.00929e-06
9.97456e-07
9.71396e-07
9.20447e-07
8.4038e-07
7.29685e-07
5.92385e-07
4.57497e-07
3.59345e-07
3.17184e-07
3.39015e-07
4.27925e-07
5.76832e-07
8.75534e-07
9.14595e-07
9.0494e-07
8.64779e-07
8.19802e-07
7.91989e-07
7.79653e-07
7.78057e-07
7.70253e-07
7.34506e-07
6.66451e-07
5.63351e-07
4.31983e-07
3.01854e-07
2.22462e-07
2.02749e-07
2.4324e-07
3.46313e-07
4.98198e-07
6.5695e-07
8.16698e-07
7.99038e-07
7.63916e-07
7.21976e-07
6.89381e-07
6.73507e-07
6.68971e-07
6.71377e-07
6.58696e-07
6.09093e-07
5.25171e-07
4.06328e-07
2.80556e-07
1.93674e-07
1.7148e-07
2.11982e-07
3.16152e-07
4.63645e-07
6.05104e-07
6.98518e-07
7.40465e-07
7.08738e-07
6.73426e-07
6.38937e-07
6.16408e-07
6.0712e-07
6.05885e-07
6.08922e-07
5.85657e-07
5.16686e-07
4.17323e-07
2.88455e-07
1.846e-07
1.51634e-07
1.87466e-07
2.89157e-07
4.33582e-07
5.66024e-07
6.46559e-07
6.74837e-07
6.84138e-07
6.54124e-07
6.23004e-07
5.94605e-07
5.77785e-07
5.7078e-07
5.69611e-07
5.71332e-07
5.37252e-07
4.51413e-07
3.47847e-07
2.1817e-07
1.38397e-07
1.47359e-07
2.3582e-07
3.81044e-07
5.20086e-07
6.04107e-07
6.34375e-07
6.33507e-07
6.4406e-07
6.17281e-07
5.8952e-07
5.65605e-07
5.52842e-07
5.47462e-07
5.46206e-07
5.46687e-07
5.03321e-07
4.05939e-07
3.0036e-07
1.77006e-07
1.31388e-07
1.81097e-07
3.11287e-07
4.60652e-07
5.60673e-07
6.00523e-07
6.05513e-07
5.96318e-07
6.18929e-07
5.95005e-07
5.69664e-07
5.4838e-07
5.37868e-07
5.33339e-07
5.3139e-07
5.29911e-07
4.7009e-07
3.62964e-07
2.63183e-07
1.55192e-07
1.43344e-07
2.32777e-07
3.83032e-07
5.07186e-07
5.67675e-07
5.82843e-07
5.79537e-07
5.702e-07
6.01235e-07
5.79361e-07
5.55859e-07
5.36261e-07
5.26616e-07
5.23665e-07
5.21377e-07
5.18002e-07
4.41197e-07
3.23378e-07
2.34664e-07
1.49185e-07
1.72363e-07
2.93051e-07
4.37494e-07
5.26903e-07
5.60006e-07
5.64027e-07
5.58976e-07
5.51179e-07
5.89587e-07
5.69377e-07
5.47317e-07
5.28801e-07
5.18612e-07
5.17076e-07
5.14834e-07
5.09891e-07
4.27435e-07
2.93034e-07
2.09095e-07
1.48792e-07
2.12048e-07
3.53148e-07
4.74751e-07
5.32259e-07
5.48772e-07
5.48454e-07
5.43936e-07
5.38008e-07
5.8123e-07
5.62339e-07
5.41458e-07
5.23844e-07
5.12961e-07
5.11451e-07
5.09894e-07
5.0438e-07
4.2416e-07
2.66002e-07
1.86348e-07
1.63883e-07
2.69275e-07
4.12059e-07
5.00177e-07
5.31542e-07
5.38098e-07
5.36226e-07
5.32686e-07
5.28366e-07
5.75502e-07
5.57728e-07
5.37816e-07
5.21e-07
5.09754e-07
5.06648e-07
5.0454e-07
5.00049e-07
4.13435e-07
2.42243e-07
1.60276e-07
1.52538e-07
2.9826e-07
4.42548e-07
5.08507e-07
5.25881e-07
5.28388e-07
5.26741e-07
5.24357e-07
5.21474e-07
5.71444e-07
5.54587e-07
5.35476e-07
5.19441e-07
5.08403e-07
5.03899e-07
4.99944e-07
4.96916e-07
4.06933e-07
2.30096e-07
1.66886e-07
1.78516e-07
3.51995e-07
4.78466e-07
5.17815e-07
5.22372e-07
5.21447e-07
5.19912e-07
5.18285e-07
5.16507e-07
5.68671e-07
5.52597e-07
5.34122e-07
5.18807e-07
5.08281e-07
5.03149e-07
4.97843e-07
4.93572e-07
4.02001e-07
1.94373e-07
1.28887e-07
1.80203e-07
3.87452e-07
5.02049e-07
5.23107e-07
5.19328e-07
5.1632e-07
5.15014e-07
5.13886e-07
5.13008e-07
5.66815e-07
5.51402e-07
5.33408e-07
5.18762e-07
5.0895e-07
5.04191e-07
4.99286e-07
4.96002e-07
4.12364e-07
2.01971e-07
1.37436e-07
2.25806e-07
4.24239e-07
5.17667e-07
5.25491e-07
5.16972e-07
5.12939e-07
5.11806e-07
5.10834e-07
5.10632e-07
5.65647e-07
5.50819e-07
5.33152e-07
5.19059e-07
5.09938e-07
5.05939e-07
5.02163e-07
5.02171e-07
4.83766e-07
3.41794e-07
2.8692e-07
4.34162e-07
5.33336e-07
5.38841e-07
5.2066e-07
5.1101e-07
5.09182e-07
5.09334e-07
5.08636e-07
5.09085e-07
5.65002e-07
5.50703e-07
5.33227e-07
5.1957e-07
5.11081e-07
5.07982e-07
5.05295e-07
5.08528e-07
5.0975e-07
5.05091e-07
4.70687e-07
5.12021e-07
5.17376e-07
5.11673e-07
5.06787e-07
5.0598e-07
5.0723e-07
5.0811e-07
5.07234e-07
5.08209e-07
5.64745e-07
5.50954e-07
5.33538e-07
5.20179e-07
5.12211e-07
5.09885e-07
5.07806e-07
5.13192e-07
5.16722e-07
5.36121e-07
5.3014e-07
5.33035e-07
5.17639e-07
5.10186e-07
5.06756e-07
5.06346e-07
5.07215e-07
5.0772e-07
5.06319e-07
5.07817e-07
5.64768e-07
5.51482e-07
5.34019e-07
5.20818e-07
5.13292e-07
5.11608e-07
5.09759e-07
5.16605e-07
5.18748e-07
5.36121e-07
5.34386e-07
5.33198e-07
5.18318e-07
5.12679e-07
5.09254e-07
5.07792e-07
5.07739e-07
5.07702e-07
5.05686e-07
5.07784e-07
5.64988e-07
5.52217e-07
5.34608e-07
5.21438e-07
5.14307e-07
5.13127e-07
5.11214e-07
5.19239e-07
5.19656e-07
5.34613e-07
5.31118e-07
5.31429e-07
5.18668e-07
5.14721e-07
5.1132e-07
5.08959e-07
5.08249e-07
5.07805e-07
5.05193e-07
5.08014e-07
5.65341e-07
5.53116e-07
5.35266e-07
5.21994e-07
5.15261e-07
5.14463e-07
5.1229e-07
5.21397e-07
5.20072e-07
5.33702e-07
5.28066e-07
5.30343e-07
5.19071e-07
5.1648e-07
5.13122e-07
5.09936e-07
5.08753e-07
5.07981e-07
5.0477e-07
5.08451e-07
5.65768e-07
5.54137e-07
5.35954e-07
5.22446e-07
5.16144e-07
5.1562e-07
5.13069e-07
5.23302e-07
5.20344e-07
5.33605e-07
5.26018e-07
5.30003e-07
5.19385e-07
5.17809e-07
5.14566e-07
5.10645e-07
5.09186e-07
5.08143e-07
5.04328e-07
5.09011e-07
5.6622e-07
5.55242e-07
5.36639e-07
5.22761e-07
5.16965e-07
5.16614e-07
5.1359e-07
5.25062e-07
5.2051e-07
5.34002e-07
5.24571e-07
5.30146e-07
5.19667e-07
5.18933e-07
5.15823e-07
5.11141e-07
5.09553e-07
5.08254e-07
5.03816e-07
5.09659e-07
5.66647e-07
5.56392e-07
5.37272e-07
5.22874e-07
5.17719e-07
5.17453e-07
5.13847e-07
5.26731e-07
5.20649e-07
5.3479e-07
5.23569e-07
5.30609e-07
5.19837e-07
5.19822e-07
5.16858e-07
5.11363e-07
5.09792e-07
5.08226e-07
5.03145e-07
5.10342e-07
5.67019e-07
5.57573e-07
5.3783e-07
5.22757e-07
5.18419e-07
5.18122e-07
5.13889e-07
5.28344e-07
5.2073e-07
5.35812e-07
5.2277e-07
5.31229e-07
5.19871e-07
5.20486e-07
5.17703e-07
5.11297e-07
5.09896e-07
5.08032e-07
5.02283e-07
5.11041e-07
5.67286e-07
5.58718e-07
5.38239e-07
5.2235e-07
5.19033e-07
5.18566e-07
5.13661e-07
5.29877e-07
5.20724e-07
5.36963e-07
5.22017e-07
5.3187e-07
5.19699e-07
5.20905e-07
5.18329e-07
5.10867e-07
5.09764e-07
5.07551e-07
5.01142e-07
5.11697e-07
5.6743e-07
5.5981e-07
5.38465e-07
5.21623e-07
5.19563e-07
5.18793e-07
5.13149e-07
5.31302e-07
5.20633e-07
5.38089e-07
5.21202e-07
5.32362e-07
5.19243e-07
5.21053e-07
5.18701e-07
5.10052e-07
5.09393e-07
5.06769e-07
4.99721e-07
5.12292e-07
5.67353e-07
5.60781e-07
5.38395e-07
5.20424e-07
5.19945e-07
5.18693e-07
5.12301e-07
5.32593e-07
5.20393e-07
5.39062e-07
5.20172e-07
5.32578e-07
5.18409e-07
5.20857e-07
5.18772e-07
5.08725e-07
5.08677e-07
5.05542e-07
4.97859e-07
5.12756e-07
5.67059e-07
5.61569e-07
5.3799e-07
5.18805e-07
5.20221e-07
5.18247e-07
5.11115e-07
5.33695e-07
5.19924e-07
5.39658e-07
5.18764e-07
5.3233e-07
5.17074e-07
5.20209e-07
5.18432e-07
5.06829e-07
5.07554e-07
5.03843e-07
4.95623e-07
5.13078e-07
5.66423e-07
5.62113e-07
5.37087e-07
5.16549e-07
5.20257e-07
5.17316e-07
5.09408e-07
5.34565e-07
5.19201e-07
5.39869e-07
5.16923e-07
5.31614e-07
5.15178e-07
5.19117e-07
5.1766e-07
5.04259e-07
5.05946e-07
5.01513e-07
4.9282e-07
5.13173e-07
5.65369e-07
5.62261e-07
5.35637e-07
5.13671e-07
5.20037e-07
5.15901e-07
5.07251e-07
5.35013e-07
5.18085e-07
5.39323e-07
5.14432e-07
5.30057e-07
5.12522e-07
5.17355e-07
5.16138e-07
5.00797e-07
5.03677e-07
4.98502e-07
4.8947e-07
5.12912e-07
5.63837e-07
5.62057e-07
5.33455e-07
5.09992e-07
5.19531e-07
5.13796e-07
5.04407e-07
5.35112e-07
5.16521e-07
5.38266e-07
5.11301e-07
5.2795e-07
5.09151e-07
5.15039e-07
5.14066e-07
4.96454e-07
5.00811e-07
4.94639e-07
4.85397e-07
5.1234e-07
5.61506e-07
5.60844e-07
5.30299e-07
5.05513e-07
5.18417e-07
5.10903e-07
5.00935e-07
5.34326e-07
5.14245e-07
5.35837e-07
5.07143e-07
5.24399e-07
5.046e-07
5.11621e-07
5.10679e-07
4.90756e-07
4.96673e-07
4.8965e-07
4.80577e-07
5.10943e-07
5.58562e-07
5.59326e-07
5.26175e-07
5.00077e-07
5.17196e-07
5.07132e-07
4.96604e-07
5.33169e-07
5.11369e-07
5.32938e-07
5.02218e-07
5.20375e-07
4.99175e-07
5.07614e-07
5.06622e-07
4.83901e-07
4.91973e-07
4.8364e-07
4.74909e-07
5.09357e-07
5.5419e-07
5.5568e-07
5.20456e-07
4.93574e-07
5.14453e-07
5.02091e-07
4.91432e-07
5.30242e-07
5.07238e-07
5.27742e-07
4.95749e-07
5.13984e-07
4.91937e-07
5.01588e-07
5.00185e-07
4.74884e-07
4.84836e-07
4.75798e-07
4.68104e-07
5.05971e-07
5.49305e-07
5.52214e-07
5.13633e-07
4.86138e-07
5.12237e-07
4.96159e-07
4.8545e-07
5.27441e-07
5.02516e-07
5.225e-07
4.88576e-07
5.07704e-07
4.83918e-07
4.955e-07
4.93089e-07
4.64513e-07
4.77518e-07
4.66967e-07
4.60583e-07
5.02931e-07
5.41883e-07
5.44296e-07
5.04016e-07
4.77168e-07
5.06242e-07
4.87891e-07
4.7826e-07
5.21033e-07
4.9563e-07
5.13193e-07
4.79081e-07
4.97382e-07
4.73241e-07
4.85678e-07
4.82011e-07
4.50916e-07
4.65716e-07
4.55244e-07
4.51522e-07
4.96316e-07
5.30156e-07
5.26453e-07
4.88598e-07
4.66151e-07
4.92876e-07
4.74692e-07
4.69267e-07
5.05703e-07
4.84656e-07
4.89689e-07
4.63916e-07
4.72195e-07
4.56437e-07
4.65292e-07
4.5699e-07
4.3128e-07
4.45403e-07
4.38664e-07
4.40929e-07
4.82039e-07
1.74102e-07
1.6428e-08
1.23057e-07
3.43964e-07
1.93927e-08
1.26472e-07
3.55548e-07
2.44633e-08
1.7048e-07
1.45343e-08
1.44322e-07
9.97477e-09
1.23345e-07
6.36166e-09
7.93629e-09
1.18319e-07
1.81346e-08
1.16673e-07
3.286e-07
2.59179e-08
1.61028e-06
1.47712e-06
1.46312e-06
1.5471e-06
1.69144e-06
1.85483e-06
2.00678e-06
2.1329e-06
2.23138e-06
2.30669e-06
2.3651e-06
2.41082e-06
2.44383e-06
2.46034e-06
2.44209e-06
2.38054e-06
2.26383e-06
2.08071e-06
1.83851e-06
1.58245e-06
8.18017e-07
9.69771e-07
1.14606e-06
1.29728e-06
1.39345e-06
1.43323e-06
1.43149e-06
1.41113e-06
1.3859e-06
1.35568e-06
1.31383e-06
1.25401e-06
1.17245e-06
1.06949e-06
9.52621e-07
8.22067e-07
6.94557e-07
5.95736e-07
5.49124e-07
5.70465e-07
7.60592e-07
8.963e-07
9.78886e-07
9.99598e-07
9.77152e-07
9.46152e-07
9.22959e-07
9.10044e-07
8.98756e-07
8.70709e-07
8.15942e-07