/*--------------------------------*- C++ -*----------------------------------*\
| =========                 |                                                 |
| \\      /  F ield         | OpenFOAM: The Open Source CFD Toolbox           |
|  \\    /   O peration     | Version:  2.4.0                                 |
|   \\  /    A nd           | Web:      www.OpenFOAM.org                      |
|    \\/     M anipulation  |                                                 |
\*---------------------------------------------------------------------------*/
FoamFile
{
    version     2.0;
    format      ascii;
    class       volScalarField;
    location    "40";
    object      p;
}
// * * * * * * * * * * * * * * * * * * * * * * * * * * * * * * * * * * * * * //

dimensions      [0 2 -2 0 0 0 0];

internalField   nonuniform List<scalar> 
283312
(
-0.00750242
-0.00733184
-0.0071214
-0.00701657
-0.00697732
-0.00700394
-0.00711183
-0.00729149
-0.00755161
-0.00787491
-0.00824728
-0.00862123
-0.00894457
-0.0091571
-0.0092558
-0.00920483
-0.00900006
-0.0086527
-0.00825025
-0.00779537
0.000937645
0.000701238
0.000565227
0.00042269
0.000323771
0.000281919
0.000222926
0.000152014
4.44398e-05
-6.1876e-05
-0.00017907
-0.000252992
-0.000262522
-0.000153667
0.000104824
0.00043573
0.000753763
0.0010048
0.00110519
0.00111823
-0.00246183
-0.00232126
-0.00215794
-0.00206615
-0.00205481
-0.0021051
-0.00222597
-0.00234075
-0.00251445
-0.00266738
-0.00284605
-0.00295778
-0.00299824
-0.00294749
-0.00292492
-0.00290718
-0.00289252
-0.00283407
-0.00276099
-0.0025947
0.000738067
0.000786491
0.000847892
0.000886375
0.000881011
0.000898691
0.000822779
0.000796444
0.000674451
0.0006279
0.000510821
0.000488922
0.000463032
0.000516737
0.000542728
0.000575408
0.000562525
0.000594161
0.000610407
0.000711498
-0.00140468
-0.00130265
-0.00124136
-0.00118976
-0.00124158
-0.00124283
-0.00134433
-0.00134317
-0.00148699
-0.00152472
-0.0017215
-0.00183073
-0.00196716
-0.00212807
-0.00228878
-0.00225867
-0.00215827
-0.00191693
-0.0017294
-0.00149137
0.000125437
0.000239131
0.000305565
0.000390813
0.000346094
0.000360627
0.000232472
0.000247995
7.14633e-05
4.5802e-05
-0.000213668
-0.000316441
-0.000536282
-0.000560239
-0.000632362
-0.000497683
-0.000388599
-0.000174346
-8.25065e-05
9.6211e-05
-0.00109419
-0.00100831
-0.000989543
-0.000927845
-0.00100536
-0.000968908
-0.00107974
-0.00101247
-0.00118526
-0.00120981
-0.00157688
-0.00171367
-0.00208476
-0.00209646
-0.00203461
-0.0017125
-0.00150928
-0.00125022
-0.0012032
-0.0010582
-0.000346291
-0.000205588
-0.000147282
-3.63582e-05
-9.95868e-05
-6.368e-05
-0.000203902
-0.000160989
-0.000376946
-0.000448722
-0.000842911
-0.000978892
-0.00122973
-0.00115647
-0.00105588
-0.000759343
-0.000653437
-0.000457203
-0.000469146
-0.000320178
-0.000986365
-0.000887895
-0.000873971
-0.000775468
-0.000829032
-0.000744219
-0.000846444
-0.000757806
-0.000943573
-0.00103797
-0.00145139
-0.00162596
-0.00183594
-0.00162087
-0.00143743
-0.00112245
-0.00106489
-0.000917112
-0.000997928
-0.000896055
-0.000636889
-0.000507745
-0.000469331
-0.000333083
-0.000377819
-0.000294177
-0.000417101
-0.000349416
-0.000547647
-0.000673559
-0.00107117
-0.00119496
-0.00133069
-0.00106301
-0.000947492
-0.000706319
-0.000714277
-0.000592529
-0.000683508
-0.000561264
-0.000942049
-0.000854403
-0.000855894
-0.000739643
-0.000790192
-0.000674412
-0.000766608
-0.000647687
-0.000788379
-0.000887791
-0.0012393
-0.0014156
-0.00147341
-0.00115965
-0.00105899
-0.000848479
-0.000893176
-0.000798147
-0.000919353
-0.000823764
-0.000781223
-0.000685277
-0.000686567
-0.000564544
-0.00062924
-0.000524985
-0.000634365
-0.000517806
-0.000652936
-0.000747799
-0.00104805
-0.00110955
-0.00117164
-0.000902374
-0.000886589
-0.000718354
-0.00078087
-0.000677422
-0.00078602
-0.000669414
-0.000897335
-0.000827275
-0.000859154
-0.000755153
-0.000838168
-0.000722027
-0.000816127
-0.000653644
-0.000743036
-0.000743127
-0.00106075
-0.00114258
-0.00115149
-0.000919741
-0.000938688
-0.000794377
-0.000864471
-0.00076003
-0.000873225
-0.000761744
-0.000822834
-0.000750792
-0.000790062
-0.000684526
-0.000779776
-0.000668667
-0.000784383
-0.000634317
-0.000731745
-0.000733203
-0.000990283
-0.000907997
-0.000964382
-0.000789753
-0.000870077
-0.000747295
-0.000823892
-0.000708234
-0.000813539
-0.000685582
-0.00085835
-0.000796622
-0.000852159
-0.000750198
-0.000850671
-0.000726218
-0.000839554
-0.000658956
-0.000747885
-0.000547391
-0.000916137
-0.000936954
-0.000941027
-0.000793987
-0.000882515
-0.000768962
-0.000848455
-0.000729828
-0.000838638
-0.000706153
-0.00082799
-0.000764271
-0.00082711
-0.000720871
-0.000828847
-0.000699054
-0.000836984
-0.000668317
-0.00079996
-0.000570313
-0.000707201
-0.000757457
-0.00090806
-0.000788852
-0.000871431
-0.000745395
-0.000826363
-0.000702066
-0.000813109
-0.000667963
-0.000832774
-0.00077025
-0.00084297
-0.000734617
-0.000846704
-0.000703317
-0.000840714
-0.000647301
-0.000781261
-0.000530881
-0.000882187
-0.000913121
-0.000956269
-0.000815734
-0.000883003
-0.000747229
-0.000830221
-0.00070043
-0.000816837
-0.000661343
-0.000817679
-0.000751768
-0.000833375
-0.000721733
-0.000844104
-0.00069525
-0.000854432
-0.000660345
-0.000832713
-0.000598724
-0.000786853
-0.000724461
-0.000882718
-0.000742111
-0.000840555
-0.000706882
-0.000807524
-0.000676541
-0.000803237
-0.000635565
-0.000812715
-0.000742603
-0.000833065
-0.000718392
-0.000847716
-0.000688691
-0.000853758
-0.000638481
-0.000827035
-0.000573868
-0.000855048
-0.000749751
-0.000894091
-0.000732373
-0.000841162
-0.000696647
-0.000803914
-0.000665086
-0.000800158
-0.000619148
-0.000798367
-0.000720551
-0.00082027
-0.000703501
-0.000843569
-0.000678998
-0.000863286
-0.000636593
-0.000853504
-0.000587278
-0.000822396
-0.000634435
-0.00083273
-0.000661407
-0.000800313
-0.000656603
-0.000779161
-0.000637181
-0.00078519
-0.000590589
-0.000790081
-0.000703419
-0.000811009
-0.000691014
-0.000839319
-0.000666414
-0.000860592
-0.000612192
-0.000851373
-0.000560187
-0.000855258
-0.000641762
-0.000854143
-0.000656712
-0.000803961
-0.000645969
-0.00077302
-0.000621095
-0.000777638
-0.000568582
-0.000766745
-0.000667946
-0.000784782
-0.000662519
-0.000819888
-0.000640826
-0.000853408
-0.000582948
-0.000850522
-0.000528355
-0.000826501
-0.000550895
-0.000798142
-0.000585317
-0.000755534
-0.000597043
-0.000735511
-0.000578337
-0.000750838
-0.000525744
-0.000759403
-0.000649191
-0.000774504
-0.00064713
-0.000810545
-0.000625128
-0.000850012
-0.000556809
-0.000849795
-0.000497972
-0.00083928
-0.000538847
-0.000810483
-0.000572623
-0.000752565
-0.000582223
-0.000724451
-0.000559005
-0.000742154
-0.000502327
-0.000725713
-0.000598349
-0.000735567
-0.000605879
-0.000773437
-0.000582129
-0.000828507
-0.000505407
-0.000833375
-0.000436154
-0.000806048
-0.000450081
-0.000756588
-0.000495475
-0.000694169
-0.000522155
-0.000670324
-0.000500202
-0.00070383
-0.000442766
-0.000724971
-0.000583663
-0.000731515
-0.000595235
-0.000764237
-0.00056878
-0.000828167
-0.000483572
-0.000842377
-0.000413353
-0.000821281
-0.000434576
-0.000768421
-0.000482118
-0.000692292
-0.000510025
-0.000660944
-0.000486138
-0.00069978
-0.000422503
-0.000678336
-0.000511515
-0.000676349
-0.000540862
-0.000706809
-0.000507141
-0.000793323
-0.000409812
-0.000819113
-0.000331893
-0.000788398
-0.000339185
-0.000714586
-0.000393724
-0.000618678
-0.00043585
-0.000587226
-0.000409006
-0.00064797
-0.000339756
-0.000688991
-0.000503641
-0.000681964
-0.000538821
-0.000701968
-0.000502213
-0.000797796
-0.000393806
-0.000838812
-0.000318128
-0.000813729
-0.00032805
-0.000732492
-0.00038314
-0.000619761
-0.000430087
-0.000582692
-0.000404167
-0.000651086
-0.000326824
-0.000625004
-0.00039921
-0.000604928
-0.000468079
-0.000615427
-0.000418315
-0.000747629
-0.000284984
-0.000800649
-0.000198662
-0.000767863
-0.000200199
-0.000662135
-0.000262085
-0.000515464
-0.000333533
-0.000479179
-0.000303796
-0.000584081
-0.000210818
-0.000651721
-0.000403136
-0.000625485
-0.000477849
-0.000619791
-0.000429251
-0.000760956
-0.000279364
-0.000829642
-0.000192196
-0.000800023
-0.000193961
-0.000686157
-0.000255133
-0.000524372
-0.000336399
-0.000482132
-0.000312206
-0.000596661
-0.000211327
-0.000574672
-0.000257743
-0.000527482
-0.000394134
-0.000494456
-0.000322252
-0.000697704
-0.000122668
-0.000776429
-1.82163e-05
-0.00073693
-1.29876e-05
-0.000593984
-9.14892e-05
-0.00038585
-0.000220807
-0.000345513
-0.000192556
-0.000520155
-5.337e-05
-0.000626339
-0.000284087
-0.000571959
-0.000421227
-0.000518811
-0.000360246
-0.000726248
-0.000142494
-0.000826227
-3.267e-05
-0.000788473
-2.63143e-05
-0.000639058
-0.000103863
-0.00041701
-0.000242571
-0.000367076
-0.00022255
-0.000546822
-7.89985e-05
-0.000539598
-7.83081e-05
-0.000452871
-0.000327322
-0.000333974
-0.00022896
-0.000650761
8.82291e-05
-0.000761485
0.000216354
-0.000713966
0.000225168
-0.000532631
0.000115544
-0.000242938
-0.000115859
-0.000189175
-8.66649e-05
-0.000465121
0.000140905
-0.000609955
-0.00012486
-0.000517629
-0.000366064
-0.000381392
-0.000292776
-0.000689505
3.51434e-05
-0.000829795
0.000174518
-0.000783592
0.000187541
-0.000596672
8.17676e-05
-0.000295592
-0.000149259
-0.000224539
-0.000130868
-0.000498669
8.74369e-05
-0.000513928
0.000186367
-0.000374448
-0.000254232
-8.67132e-05
-0.000135924
-0.000596284
0.000395429
-0.00075128
0.000549463
-0.00069688
0.000556215
-0.000476221
0.000397899
-6.92332e-05
-7.87515e-06
2.53744e-05
2.37841e-05
-0.000405972
0.000414648
-0.000584057
0.000123579
-0.000443036
-0.000289487
-0.000161888
-0.000209955
-0.000631518
0.000300136
-0.000820972
0.000480092
-0.000765603
0.000494348
-0.000542235
0.000348501
-0.000125536
-2.71984e-05
-1.15023e-05
-1.59624e-05
-0.000431772
0.000330832
-0.000511719
0.000607175
-0.000302717
-0.000162245
0.000319158
-6.09998e-05
-0.000522097
0.000873317
-0.000762039
0.00105221
-0.000697936
0.00104418
-0.000439373
0.000824879
0.000158148
0.000109679
0.000349212
0.00013253
-0.000330219
0.000837026
-0.000548104
0.000523783
-0.000342646
-0.000178394
0.000206059
-0.000108976
-0.000538659
0.000727186
-0.000802216
0.000947581
-0.000740204
0.000950466
-0.000479704
0.000759515
0.000123352
0.000133386
0.000314487
0.000122832
-0.000335688
0.000716835
-0.000595872
0.00131735
-0.000298576
-4.30858e-05
0.00102387
-7.08987e-05
-0.000417459
0.00167167
-0.000868098
0.00185981
-0.00079097
0.00181148
-0.000488989
0.00152125
0.000428996
0.000198327
0.00086246
0.000193805
-0.000230488
0.00153712
-0.000551619
0.0012203
-0.000263206
-3.10051e-05
0.000896058
-3.44342e-05
-0.000402975
0.00150507
-0.000826263
0.0017334
-0.000760618
0.00169816
-0.000463525
0.00144273
0.00044538
0.000281094
0.000837325
0.000244945
-0.000208823
0.00140725
-0.000973042
0.00272812
-0.000589613
0.000108829
0.00246228
-0.000398724
-0.000264312
0.00328096
-0.00129527
0.00343349
-0.00118892
0.003285
-0.000833742
0.00286472
0.000614485
0.000104416
0.0018037
3.37862e-05
-0.000105973
0.00292038
-0.0113128
-0.0109505
-0.0105239
-0.0102158
-0.0100162
-0.00995128
-0.0100372
-0.0102543
-0.0106035
-0.011054
-0.01158
-0.0121203
-0.0126042
-0.0129522
-0.0131609
-0.0131947
-0.0130449
-0.0127143
-0.0122838
-0.0117449
0.00110738
0.00102554
0.000985414
0.000879107
0.000779014
0.000723937
0.00063183
0.000514575
0.000338899
0.000137919
-0.000114257
-0.000358902
-0.000558855
-0.000625325
-0.000489877
-0.000202718
0.00016289
0.00055104
0.000852433
0.001091
-0.00284933
-0.00259061
-0.00235476
-0.0022278
-0.00221955
-0.00229643
-0.00246664
-0.00264183
-0.00291287
-0.00320389
-0.00360394
-0.00400079
-0.00434087
-0.00452571
-0.00461146
-0.00453209
-0.00430268
-0.00393998
-0.00356565
-0.00315061
0.00180375
0.00188038
0.00196209
0.00201323
0.00200352
0.00201822
0.00191696
0.00186849
0.00167448
0.00150925
0.00113378
0.000788083
0.000465271
0.000394949
0.00050792
0.000801428
0.00109108
0.00137893
0.00155264
0.0017455
-0.00123758
-0.00107556
-0.00097512
-0.000897766
-0.000968168
-0.000972269
-0.00110963
-0.0011194
-0.00134271
-0.00150916
-0.00204427
-0.00253061
-0.00294253
-0.00313986
-0.00312708
-0.00279843
-0.00243788
-0.0019998
-0.00170522
-0.00137931
0.000818084
0.00100656
0.00112111
0.00124399
0.00117732
0.00118835
0.00101189
0.00102685
0.000763972
0.000614666
-3.99947e-05
-0.000507009
-0.00092085
-0.000805855
-0.000621855
-0.000215139
4.96913e-05
0.000366738
0.000495442
0.00074124
-0.000951318
-0.00079098
-0.000732439
-0.000636206
-0.000747243
-0.000708183
-0.000867731
-0.000780899
-0.00104091
-0.00118159
-0.00201069
-0.00249085
-0.00299988
-0.00278917
-0.00245695
-0.00188258
-0.00156478
-0.00121551
-0.00115616
-0.000949145
2.88335e-05
0.000268844
0.00038337
0.000555451
0.000456497
0.000499626
0.000296512
0.000354767
3.42057e-05
-0.000150534
-0.00104291
-0.00146902
-0.00172023
-0.00136903
-0.00104256
-0.000565324
-0.000410279
-0.000155833
-0.000187195
2.307e-05
-0.000903221
-0.000719106
-0.000659688
-0.000494735
-0.000573569
-0.000459929
-0.000613973
-0.000491486
-0.000768142
-0.000957047
-0.00190203
-0.00231936
-0.00244656
-0.00191562
-0.00153399
-0.00106452
-0.000995077
-0.000815747
-0.000955863
-0.000814529
-0.000457192
-0.000234828
-0.000145139
7.23763e-05
9.79785e-06
0.000127152
-5.9605e-05
4.71322e-05
-0.000249806
-0.000442746
-0.00137658
-0.00166906
-0.00165126
-0.00107973
-0.000830418
-0.000476044
-0.000514099
-0.000376097
-0.000541494
-0.000377733
-0.00090211
-0.000741654
-0.000713967
-0.000519051
-0.000593201
-0.000433101
-0.000583004
-0.000403117
-0.000615744
-0.000733608
-0.00161167
-0.0019089
-0.00177367
-0.00118057
-0.000982874
-0.000682152
-0.000772724
-0.000669605
-0.000880816
-0.000754099
-0.00069236
-0.000529395
-0.000513867
-0.000318461
-0.00042219
-0.000280714
-0.000461843
-0.000287801
-0.000476829
-0.000560264
-0.00135083
-0.00142338
-0.00131488
-0.000820638
-0.000761268
-0.000521519
-0.000634688
-0.000511408
-0.000702561
-0.000544281
-0.000851415
-0.000731387
-0.000769418
-0.000604923
-0.000741872
-0.000584651
-0.000753373
-0.000515894
-0.000653475
-0.000583161
-0.00134562
-0.00140971
-0.00126425
-0.000857032
-0.000862405
-0.000653481
-0.000770254
-0.000631985
-0.000821899
-0.000664289
-0.000743672
-0.000627631
-0.000686545
-0.000525755
-0.00068723
-0.000537098
-0.00074181
-0.000528136
-0.000689613
-0.00061739
-0.00122692
-0.00103915
-0.0010004
-0.000694723
-0.00079436
-0.000611025
-0.000729991
-0.000563937
-0.000735699
-0.000548814
-0.00078399
-0.000685858
-0.000774513
-0.000619884
-0.000791285
-0.000618474
-0.00082263
-0.000566275
-0.000731967
-0.000399156
-0.00103756
-0.00101998
-0.00096898
-0.000721804
-0.00083693
-0.000658257
-0.000774797
-0.000594081
-0.000764709
-0.000564459
-0.000735204
-0.000636412
-0.000740779
-0.00058011
-0.000763699
-0.00057949
-0.000822101
-0.000585949
-0.000819894
-0.000435967
-0.000566308
-0.000634289
-0.000878073
-0.000709592
-0.000832103
-0.000632042
-0.000748994
-0.000554244
-0.000724989
-0.000501071
-0.000735285
-0.000638123
-0.000760338
-0.000594943
-0.000785146
-0.000575941
-0.000818476
-0.000542834
-0.000784804
-0.000378753
-0.000818811
-0.000861009
-0.000962425
-0.000753606
-0.000857415
-0.000636475
-0.00075682
-0.000549885
-0.000726783
-0.000482241
-0.000710252
-0.000607194
-0.000745704
-0.000574116
-0.000781123
-0.000559823
-0.000834761
-0.000554419
-0.000857557
-0.000483874
-0.000755399
-0.000650621
-0.000894859
-0.000659985
-0.000803842
-0.000578191
-0.000725932
-0.000514594
-0.000706417
-0.00043925
-0.000700458
-0.000588811
-0.000743389
-0.0005657
-0.000785648
-0.000545739
-0.000828987
-0.000512054
-0.000841123
-0.000448018
-0.000886668
-0.000710814
-0.000932896
-0.000649702
-0.000809791
-0.000562471
-0.000722664
-0.000497243
-0.000701819
-0.000410297
-0.000678838
-0.000552504
-0.000723601
-0.000541201
-0.000780659
-0.000529711
-0.000840891
-0.000500822
-0.000873045
-0.000455129
-0.000847655
-0.000538243
-0.000844324
-0.000540548
-0.000752409
-0.000502879
-0.000689052
-0.000456537
-0.000680725
-0.000365061
-0.000666234
-0.000522402
-0.000707946
-0.000518691
-0.000774637
-0.000508826
-0.000833726
-0.000454595
-0.00085939
-0.000397773
-0.000886415
-0.000529619
-0.000869694
-0.000524308
-0.000758968
-0.000485454
-0.000681795
-0.000431844
-0.000669404
-0.000328646
-0.000633091
-0.000466698
-0.000668482
-0.000472736
-0.000746574
-0.000469602
-0.000820367
-0.000402243
-0.000848927
-0.000332205
-0.000833206
-0.000375983
-0.00078038
-0.000410127
-0.000689758
-0.000412343
-0.000628873
-0.00036828
-0.000629826
-0.000262869
-0.000623585
-0.000434987
-0.000652421
-0.00044502
-0.000732113
-0.000443818
-0.000811989
-0.000353717
-0.000838546
-0.000268283
-0.000840224
-0.000337037
-0.000791749
-0.000380584
-0.000685583
-0.000387249
-0.000612184
-0.000336773
-0.000615433
-0.00022436
-0.000579273
-0.000360859
-0.000599064
-0.000382274
-0.000679421
-0.000380959
-0.000779119
-0.000273443
-0.00081066
-0.00016602
-0.000786439
-0.000193852
-0.000711877
-0.000261975
-0.000605379
-0.00029973
-0.000535855
-0.000251272
-0.000560089
-0.00013708
-0.000583358
-0.000338876
-0.000597199
-0.000364191
-0.000666916
-0.000360904
-0.000777824
-0.000237154
-0.000824114
-0.000123743
-0.000808721
-0.000159954
-0.000730511
-0.000235727
-0.000605929
-0.00027996
-0.000521952
-0.000228668
-0.000553436
-0.000105136
-0.000526628
-0.000240661
-0.000528413
-0.00028787
-0.000589737
-0.000276685
-0.000729973
-0.000133854
-0.000798366
-8.70648e-06
-0.000770999
-2.23916e-05
-0.000662577
-0.000109082
-0.000510367
-0.000176658
-0.000421365
-0.00012191
-0.000481856
1.0346e-05
-0.000552046
-0.000232513
-0.000546809
-0.000286635
-0.000587478
-0.000273719
-0.00073956
-0.000112617
-0.000837756
9.47927e-06
-0.000820423
-4.00853e-06
-0.000697319
-8.92557e-05
-0.000516681
-0.00016714
-0.000415213
-0.000115279
-0.000487448
2.9105e-05
-0.000478739
-9.66534e-05
-0.000457123
-0.000194083
-0.000476732
-0.000167219
-0.000675797
3.09319e-05
-0.000800714
0.00016673
-0.000775627
0.000168984
-0.000613821
7.93455e-05
-0.000382751
-3.66486e-05
-0.000277573
1.67658e-05
-0.000399202
0.000184195
-0.000535404
-0.000111538
-0.000506224
-0.000216548
-0.000494446
-0.00019599
-0.000704635
3.08066e-05
-0.00086209
0.000169281
-0.000842501
0.000177556
-0.000661001
9.41306e-05
-0.000402852
-4.28713e-05
-0.000285241
-1.75071e-06
-0.000423366
0.000178548
-0.000458782
6.72056e-05
-0.000404154
-0.000117855
-0.000343222
-7.34261e-05
-0.000633166
0.000227613
-0.000816677
0.00039094
-0.000785297
0.0004149
-0.000556981
0.000313281
-0.000234366
0.000101932
-0.000114149
0.000141703
-0.000332717
0.000378106
-0.000564199
1.20483e-05
-0.000500635
-0.000175048
-0.000398842
-0.000153992
-0.000693617
0.000183388
-0.000920291
0.000359178
-0.000890673
0.000392675
-0.000643212
0.000295637
-0.000296697
5.75378e-05
-0.000156951
8.0835e-05
-0.000386298
0.000328816
-0.000492026
0.00025888
-0.000389288
-7.54202e-05
-0.000181624
-1.79154e-05
-0.00061702
0.000466963
-0.000875257
0.000671326
-0.000833455
0.000714823
-0.000535679
0.000577551
-9.99495e-05
0.000199664
5.4415e-05
0.000227823
-0.000301076
0.000597473
-0.000632941
0.000176827
-0.000523606
-0.000153764
-0.000271397
-0.000145323
-0.000697334
0.000376863
-0.00101476
0.000605663
-0.000973136
0.000662951
-0.000656535
0.00053097
-0.000200741
0.000130484
-9.97229e-06
0.000138784
-0.000369581
0.000508779
-0.000562057
0.0005603
-0.000395772
-3.54018e-05
8.49252e-05
7.46429e-06
-0.000602597
0.000827535
-0.000964077
0.00108442
-0.000912045
0.00113859
-0.000543457
0.000937661
5.13055e-05
0.000281863
0.000290305
0.000296857
-0.000275794
0.000912702
-0.000709035
0.00047096
-0.000541737
-0.000106208
-3.24943e-05
-0.000142578
-0.000676839
0.000693449
-0.00111253
0.00100069
-0.00105617
0.00107031
-0.000672797
0.00088435
-5.55238e-05
0.000230148
0.000231742
0.000207628
-0.000333215
0.000793941
-0.000689749
0.00108144
-0.00043813
3.02172e-05
0.000564408
-2.34308e-05
-0.000563675
0.0014224
-0.00110872
0.001743
-0.00103997
0.0017844
-0.000602828
0.00150351
0.000256592
0.000364104
0.000671873
0.000339003
-0.000232497
0.00142916
-0.000806071
0.000986907
-0.000560901
-1.1799e-05
0.000415946
-0.000155242
-0.000609464
0.00124437
-0.00123431
0.001639
-0.00116562
0.0016946
-0.000714502
0.00144919
0.000169336
0.00035742
0.000622906
0.000273136
-0.000263012
0.00128118
-0.000983929
0.00199393
-0.000622065
0.000127663
0.0014378
-0.000219703
-0.00048671
0.00244694
-0.00143822
0.00282142
-0.00134758
0.00280581
-0.000832897
0.00243044
0.000472424
0.000364897
0.0012883
0.000271419
-0.000166414
0.00231408
-0.00100996
0.00191412
-0.000662241
0.000132042
0.00130131
-0.000262402
-0.000484452
0.00227673
-0.00147473
0.00272417
-0.00139578
0.00271998
-0.000877642
0.00238019
0.000430336
0.000408742
0.00125717
0.000261968
-0.000160484
0.00217941
-0.00170415
0.00375098
-0.00123057
0.000266533
0.00317228
-0.000873134
-0.000348007
0.00442646
-0.00224164
0.00482489
-0.00210384
0.0046755
-0.00149655
0.00412014
0.000533034
8.19751e-05
0.00239796
-0.000114772
-7.33922e-05
0.00399737
-0.0138987
-0.0134261
-0.0129093
-0.0125247
-0.0122782
-0.0122007
-0.0123073
-0.0125787
-0.0130103
-0.0135673
-0.0142126
-0.0148717
-0.0154604
-0.0158828
-0.0161283
-0.0161637
-0.0159799
-0.0155868
-0.0150708
-0.0144382
0.000514769
0.000494308
0.000491915
0.000413618
0.00033041
0.00027783
0.0001638
6.1199e-06
-0.000232295
-0.000515358
-0.000866613
-0.00121622
-0.00150722
-0.00163525
-0.00151683
-0.00120115
-0.00077073
-0.000296383
9.79671e-05
0.000420122
-0.00352091
-0.00318989
-0.00290683
-0.00275118
-0.00273836
-0.00282306
-0.00301802
-0.00323788
-0.00358266
-0.00397657
-0.00451214
-0.00505575
-0.00552193
-0.0057862
-0.0058842
-0.00575081
-0.00541948
-0.00493571
-0.00443936
-0.00391431
0.00193875
0.00205764
0.00216548
0.00223602
0.00223431
0.00224866
0.00213352
0.00205793
0.00180018
0.00153766
0.00101236
0.000507894
6.75255e-05
-3.79099e-05
0.000119571
0.000511534
0.000913672
0.00130484
0.00156271
0.0018229
-0.00138418
-0.00117735
-0.0010512
-0.000957198
-0.00102563
-0.00102199
-0.00116783
-0.00119278
-0.00148042
-0.00175272
-0.00247723
-0.00314977
-0.00368522
-0.00389775
-0.00381381
-0.00336447
-0.00288609
-0.00235118
-0.00197944
-0.0015833
0.000923262
0.00116184
0.00130507
0.00145062
0.00138555
0.00140846
0.00122132
0.00122916
0.000901237
0.000646252
-0.000223541
-0.000871904
-0.00137825
-0.00122724
-0.000945075
-0.000429227
-8.48178e-05
0.000298178
0.000479214
0.000789104
-0.00106378
-0.000854618
-0.000772049
-0.000651175
-0.000763314
-0.000704373
-0.000869331
-0.000772572
-0.0010959
-0.00134076
-0.00241871
-0.00307818
-0.00366042
-0.00337247
-0.00292705
-0.00224668
-0.00186562
-0.00146484
-0.00137091
-0.00110688
3.14178e-07
0.000297154
0.000441058
0.000644811
0.000545702
0.000613432
0.000401009
0.000477219
8.97813e-05
-0.000192993
-0.00135338
-0.00193127
-0.00220893
-0.00175662
-0.00133797
-0.000775528
-0.00059161
-0.000301456
-0.000316049
-4.93468e-05
-0.00105179
-0.000813341
-0.000732878
-0.000527754
-0.000603648
-0.000451134
-0.000609713
-0.000448451
-0.000790305
-0.00106087
-0.00228778
-0.00283915
-0.00295299
-0.00229582
-0.00183541
-0.00129566
-0.00122555
-0.00102529
-0.00117441
-0.000986619
-0.000576796
-0.000297316
-0.000189897
7.83553e-05
9.11212e-06
0.000170615
-2.44831e-05
0.000126835
-0.000225592
-0.000478298
-0.0016992
-0.00207605
-0.00203229
-0.00133335
-0.00103515
-0.000629435
-0.000684913
-0.000531701
-0.000721314
-0.000511067
-0.00107377
-0.000862548
-0.000829258
-0.0005853
-0.000670447
-0.000459832
-0.000621817
-0.000376599
-0.000630118
-0.000771167
-0.00193177
-0.0022845
-0.00211319
-0.00139913
-0.00117744
-0.000832158
-0.000958089
-0.000840984
-0.00109074
-0.000920643
-0.000846739
-0.000635664
-0.000626791
-0.000385475
-0.000515517
-0.000326054
-0.000531653
-0.000280949
-0.000510512
-0.000583456
-0.00163364
-0.00171766
-0.00157511
-0.00097895
-0.000924103
-0.000645958
-0.000801433
-0.000655095
-0.000888359
-0.000681019
-0.00101374
-0.000851838
-0.000912067
-0.000706397
-0.000883234
-0.000677684
-0.000880021
-0.000557642
-0.000727316
-0.000601114
-0.0016029
-0.00165451
-0.00149168
-0.00100365
-0.00103311
-0.000786636
-0.000946859
-0.000773357
-0.00100675
-0.00079461
-0.000887377
-0.000732491
-0.000826086
-0.000626672
-0.00084152
-0.000645386
-0.000899745
-0.000603703
-0.000802398
-0.00065416
-0.00145599
-0.00121558
-0.00118746
-0.00081767
-0.000960051
-0.000737538
-0.000899729
-0.000685332
-0.000899719
-0.000649827
-0.000918132
-0.00078342
-0.0009172
-0.000723041
-0.00095594
-0.000733021
-0.000998044
-0.000653355
-0.00086753
-0.000415511
-0.00120809
-0.00116891
-0.00114948
-0.000849509
-0.00101148
-0.000785667
-0.000942823
-0.000702336
-0.000916299
-0.000645397
-0.000853553
-0.000717753
-0.000874933
-0.000671432
-0.000923704
-0.000686161
-0.00100622
-0.000687952
-0.000991423
-0.000472846
-0.000665659
-0.000726482
-0.00104792
-0.000833789
-0.00100609
-0.000747484
-0.00090472
-0.000642078
-0.000859153
-0.000557012
-0.000841455
-0.000705233
-0.000886461
-0.000673311
-0.000936961
-0.000666892
-0.000996862
-0.000633389
-0.000961883
-0.000421013
-0.00096021
-0.000984737
-0.00115313
-0.000881124
-0.00103145
-0.000739313
-0.000901098
-0.000619648
-0.000847426
-0.000517184
-0.000803779
-0.000657991
-0.000861445
-0.00063708
-0.000924141
-0.000635944
-0.00101192
-0.000641724
-0.00105562
-0.000552458
-0.000924486
-0.000764643
-0.00108928
-0.000770792
-0.000964939
-0.000658264
-0.000853424
-0.000563433
-0.000813034
-0.00045279
-0.00078302
-0.000623447
-0.000848972
-0.000613383
-0.000919696
-0.00060551
-0.000998391
-0.000581751
-0.00103869
-0.000513753
-0.00109007
-0.000835684
-0.00114102
-0.000751075
-0.000965149
-0.000625303
-0.000837424
-0.000527645
-0.000796841
-0.000403937
-0.000750287
-0.000569232
-0.000817871
-0.000572809
-0.000906596
-0.000574961
-0.00100682
-0.00055627
-0.001075
-0.000513198
-0.00105529
-0.000629919
-0.00103866
-0.000612432
-0.000891833
-0.000542708
-0.00078818
-0.000466551
-0.000763254
-0.000337557
-0.000727431
-0.000520475
-0.000790492
-0.000533561
-0.000891641
-0.000538075
-0.000991606
-0.000486384
-0.00105291
-0.000429741
-0.00109557
-0.000598846
-0.0010608
-0.000576031
-0.000890692
-0.000507888
-0.000768803
-0.000423021
-0.000740169
-0.000279726
-0.00068206
-0.000442677
-0.0007365
-0.000467651
-0.000851833
-0.000480499
-0.000969269
-0.000407917
-0.00103327
-0.000331334
-0.00102692
-0.000396882
-0.000948476
-0.000425424
-0.000803028
-0.000410014
-0.000698225
-0.000335801
-0.000685167
-0.000188548
-0.000663143
-0.000390434
-0.00070831
-0.00042117
-0.00082588
-0.000436604
-0.000951038
-0.000330322
-0.00101085
-0.000228913
-0.00102298
-0.000320946
-0.000949207
-0.000368279
-0.000787329
-0.000364957
-0.000666756
-0.00028283
-0.000657409
-0.000125995
-0.000607167
-0.000292157
-0.000640517
-0.000336405
-0.000757354
-0.000351961
-0.000905973
-0.000218282
-0.000971119
-8.49171e-05
-0.000951978
-0.000128069
-0.000847984
-0.000211208
-0.000687599
-0.000251231
-0.000569494
-0.000170745
-0.000584779
-9.82139e-06
-0.00060615
-0.000251387
-0.000630981
-0.000301706
-0.000732931
-0.000314805
-0.00089676
-0.000154998
-0.000980508
-7.8582e-06
-0.000970021
-5.86359e-05
-0.000859577
-0.000156996
-0.000677585
-0.000212208
-0.000540112
-0.000127512
-0.000566151
4.63347e-05
-0.00053993
-0.00012746
-0.000549905
-0.00020422
-0.00063744
-0.000208308
-0.000837048
-1.9982e-05
-0.000950798
0.00014512
-0.00092627
0.000122476
-0.000778156
7.16042e-06
-0.000562401
-8.18107e-05
-0.000415461
6.89749e-06
-0.00047678
0.000193861
-0.000565983
-0.000101981
-0.000566461
-0.000190815
-0.000624536
-0.000192474
-0.00084251
2.40642e-05
-0.00099768
0.000190276
-0.000984089
0.000171227
-0.000812593
5.52404e-05
-0.000557526
-5.30564e-05
-0.000392712
3.16222e-05
-0.000472907
0.000236316
-0.000486586
6.21523e-05
-0.000467534
-7.91873e-05
-0.000493604
-6.62381e-05
-0.000768767
0.000200174
-0.000963998
0.000385036
-0.000942272
0.000387248
-0.000719764
0.000266515
-0.000399733
0.000106838
-0.000226891
0.000190797
-0.000367726
0.000426516
-0.000554504
6.03804e-05
-0.00052463
-9.71425e-05
-0.000505023
-9.21192e-05
-0.000800597
0.000218013
-0.00104398
0.00041052
-0.00102796
0.000424394
-0.000772453
0.00031112
-0.0004107
0.000115684
-0.000220139
0.000182963
-0.000388787
0.000440449
-0.000482097
0.000267102
-0.000422097
1.36729e-05
-0.000334094
4.15318e-05
-0.000725371
0.000448165
-0.00101105
0.000673138
-0.00098178
0.000709813
-0.000663616
0.000576921
-0.000220484
0.00028406
-2.21144e-05
0.000345569
-0.000288188
0.000674761
-0.000613986
0.000219777
-0.000539862
-4.91664e-05
-0.000388863
-5.07401e-05
-0.000798587
0.000416601
-0.00114676
0.000662821
-0.00111755
0.000716495
-0.00076523
0.000586805
-0.000283157
0.000243209
-5.68834e-05
0.000283096
-0.00034838
0.000638829
-0.000556158
0.000501358
-0.00043596
5.71066e-05
-0.000146527
8.773e-05
-0.000722666
0.000741228
-0.00112257
0.00102746
-0.00107826
0.00109862
-0.000658976
0.000922537
-6.77068e-05
0.000401512
0.000183582
0.000441303
-0.000259496
0.00094697
-0.000732258
0.000434775
-0.000598731
-2.94158e-05
-0.000230539
-6.16541e-05
-0.000818232
0.000668991
-0.00130209
0.000993053
-0.00125499
0.00108569
-0.000801047
0.000911275
-0.000171316
0.000331943
0.000131613
0.000344427
-0.000337532
0.000875051
-0.000680848
0.000875978
-0.000481045
9.87874e-05
0.000171381
8.84265e-05
-0.000720857
0.00118456
-0.00127561
0.00155186
-0.00121506
0.0016468
-0.000691123
0.00139522
0.000107321
0.000501715
0.000477105
0.000511046
-0.000239081
0.00133699
-0.000868314
0.000821865
-0.000659918
2.43285e-05
7.55774e-05
-9.17783e-05
-0.000805561
0.00108567
-0.00146838
0.00152192
-0.00140026
0.00163728
-0.000845006
0.00139871
4.50056e-06
0.000453514
0.000445102
0.000409636
-0.000303162
0.00124935
-0.000880234
0.00152276
-0.000574521
0.000175495
0.000749656
1.35121e-05
-0.000684126
0.00191506
-0.00149936
0.00238181
-0.0014159
0.00246932
-0.00078768
0.00212922
0.000351504
0.000604137
0.000950633
0.000540576
-0.000196043
0.00197133
-0.00104862
0.00148802
-0.000741533
0.000133865
0.000645426
-0.000161455
-0.000734227
0.00179772
-0.00168084
0.00235869
-0.00159598
0.0024594
-0.000937786
0.0021551
0.000268427
0.000594147
0.000939616
0.000450178
-0.000231386
0.00187503