/*--------------------------------*- C++ -*----------------------------------*\
| =========                 |                                                 |
| \\      /  F ield         | OpenFOAM: The Open Source CFD Toolbox           |
|  \\    /   O peration     | Version:  2.4.0                                 |
|   \\  /    A nd           | Web:      www.OpenFOAM.org                      |
|    \\/     M anipulation  |                                                 |
\*---------------------------------------------------------------------------*/
FoamFile
{
    version     2.0;
    format      ascii;
    class       volScalarField;
    location    "690";
    object      p;
}
// * * * * * * * * * * * * * * * * * * * * * * * * * * * * * * * * * * * * * //

dimensions      [0 2 -2 0 0 0 0];

internalField   nonuniform List<scalar> 
283312
(
-0.00626978
-0.00632801
-0.00656755
-0.00690843
-0.00726266
-0.00756108
-0.0077955
-0.00796043
-0.00808798
-0.00820143
-0.00832084
-0.00843271
-0.008505
-0.00848198
-0.00833053
-0.00805782
-0.00767461
-0.00721793
-0.00676916
-0.00642667
0.00215305
0.00164905
0.00122071
0.000949315
0.000848022
0.000911855
0.00105347
0.00119347
0.00130362
0.00139133
0.00145892
0.00153808
0.00166687
0.00186792
0.0021545
0.00252559
0.00284279
0.00299605
0.00292137
0.00261717
-0.00230084
-0.00215175
-0.00193005
-0.00169108
-0.0014998
-0.00140382
-0.00138656
-0.00139423
-0.00144486
-0.0014883
-0.00152026
-0.00149985
-0.00142784
-0.00132603
-0.00127674
-0.00137921
-0.00161514
-0.0019058
-0.00216622
-0.00230979
0.00148386
0.0016553
0.00179834
0.00191274
0.00199556
0.00206396
0.0020705
0.00207639
0.00204249
0.00205233
0.0020687
0.00211617
0.00214705
0.00210895
0.00198651
0.00174994
0.00150255
0.00131967
0.00126416
0.00133653
-0.000744075
-0.000546441
-0.000430237
-0.000352511
-0.000349741
-0.000337612
-0.000349761
-0.000336807
-0.000367565
-0.000345708
-0.000356152
-0.000412029
-0.000585789
-0.000895926
-0.00131411
-0.00165025
-0.0017422
-0.00160444
-0.0013228
-0.00100903
0.00120489
0.00131408
0.00137169
0.0014171
0.0014307
0.00143788
0.00140325
0.00138992
0.00132512
0.00133392
0.00127648
0.00115178
0.000879307
0.000526138
0.000265082
0.000194644
0.000321344
0.000562121
0.00082589
0.00104856
-0.00015001
-0.0001107
-0.000103956
-9.8335e-05
-0.000109736
-8.47665e-05
-8.5281e-05
-5.68174e-05
-8.85967e-05
-6.48359e-05
-0.000182348
-0.000455259
-0.000865875
-0.00126904
-0.00140013
-0.00124846
-0.000936772
-0.000624537
-0.000382345
-0.000229353
0.000764042
0.000812922
0.000836307
0.00086109
0.000849297
0.000845614
0.000807982
0.000787505
0.000718445
0.000707505
0.000546891
0.000231522
-0.000173219
-0.000362322
-0.00030944
-7.78917e-05
0.000206563
0.000433313
0.000595533
0.000699038
1.35527e-07
1.74457e-06
-9.24e-06
-1.09296e-05
-1.2373e-05
9.55782e-06
1.14045e-05
3.13313e-05
3.49665e-06
6.60418e-06
-0.00018895
-0.000597241
-0.00100268
-0.00108576
-0.000870729
-0.000579573
-0.000314749
-0.00015033
-5.41807e-05
-1.20392e-05
0.000441918
0.000466407
0.000477131
0.000487561
0.000474694
0.000466278
0.000435829
0.000413486
0.000360099
0.000342698
0.000161458
-0.000210369
-0.000462736
-0.000448539
-0.000215782
9.74755e-06
0.000194599
0.000300046
0.000370888
0.000412528
4.42296e-05
4.21417e-05
3.32198e-05
3.50462e-05
3.42909e-05
4.93479e-05
4.97053e-05
6.60113e-05
4.88442e-05
7.34399e-05
-0.000104187
-0.000535003
-0.000716969
-0.000634399
-0.000390602
-0.000205292
-6.71566e-05
-4.1172e-06
3.28166e-05
4.34454e-05
0.000251187
0.000262905
0.000266685
0.000269807
0.000258624
0.000249852
0.000226248
0.000208643
0.000173237
0.000192176
5.50951e-05
-0.000227749
-0.000332365
-0.000226202
-4.54261e-05
6.89703e-05
0.000154734
0.000191216
0.000221412
0.000237342
5.52037e-05
5.51357e-05
5.06221e-05
5.40524e-05
5.28561e-05
6.41198e-05
6.37581e-05
8.73128e-05
8.39352e-05
0.00019027
7.55047e-05
-0.000272263
-0.00035634
-0.000290635
-0.000145009
-6.32326e-05
4.77791e-06
2.88368e-05
4.88252e-05
5.33991e-05
0.000145655
0.000150814
0.000151001
0.000151286
0.0001415
0.000133708
0.000114549
0.000102379
8.17191e-05
0.000139065
9.81029e-05
-5.16304e-05
-0.000108762
-5.348e-05
3.36758e-05
7.06535e-05
0.00010829
0.0001181
0.000133058
0.000138849
5.29582e-05
5.46569e-05
5.31645e-05
5.67082e-05
5.54982e-05
6.4478e-05
6.47683e-05
9.32979e-05
0.000105264
0.000280156
0.000267025
-5.06555e-05
-0.000137032
-0.000139588
-7.50598e-05
-3.47132e-05
1.12369e-05
2.69899e-05
4.41465e-05
4.9027e-05
8.91167e-05
9.13106e-05
9.00931e-05
8.93017e-05
8.09548e-05
7.40745e-05
5.76992e-05
4.70771e-05
2.90056e-05
8.60761e-05
0.000195902
3.70553e-05
-1.94081e-05
-1.94039e-05
2.15377e-05
3.49308e-05
6.3453e-05
7.02501e-05
8.19807e-05
8.50411e-05
4.63845e-05
4.85734e-05
4.84694e-05
5.1299e-05
5.01928e-05
5.6182e-05
5.59808e-05
7.23543e-05
6.84969e-05
0.000106985
6.64696e-05
-3.07767e-05
-4.01416e-05
-5.48681e-05
-2.08967e-05
-1.19106e-05
1.47787e-05
2.35174e-05
3.72809e-05
4.18363e-05
5.95435e-05
6.0287e-05
5.87819e-05
5.76857e-05
5.09599e-05
4.50854e-05
3.22853e-05
2.18697e-05
9.77329e-06
9.0936e-06
4.07786e-05
9.83199e-06
1.88967e-05
1.65502e-05
3.63684e-05
3.51594e-05
4.91115e-05
4.92258e-05
5.6237e-05
5.71456e-05
3.95868e-05
4.14068e-05
4.16899e-05
4.35383e-05
4.24347e-05
4.58673e-05
4.58149e-05
5.3875e-05
5.14658e-05
5.81538e-05
3.35683e-05
-1.54744e-05
-1.68321e-05
-3.05275e-05
-8.3638e-06
-4.55635e-06
1.45916e-05
2.06584e-05
3.16239e-05
3.53766e-05
4.37976e-05
4.38948e-05
4.2602e-05
4.15073e-05
3.63622e-05
3.16348e-05
2.21421e-05
1.32285e-05
4.42248e-06
-2.43788e-06
1.15558e-05
6.41742e-06
2.27487e-05
2.05364e-05
3.41708e-05
3.02802e-05
3.8903e-05
3.743e-05
4.21049e-05
4.21983e-05
3.41213e-05
3.5221e-05
3.5474e-05
3.64245e-05
3.51146e-05
3.67191e-05
3.64952e-05
3.97681e-05
3.90728e-05
3.78459e-05
2.53905e-05
-5.23266e-06
-6.21023e-06
-1.71478e-05
-1.9438e-06
4.36845e-07
1.47179e-05
1.92831e-05
2.7821e-05
3.05384e-05
3.50637e-05
3.48389e-05
3.39456e-05
3.29669e-05
2.91552e-05
2.55998e-05
1.88311e-05
1.17238e-05
5.84327e-06
-9.16594e-07
6.80761e-06
6.97699e-06
2.18232e-05
1.97564e-05
2.98188e-05
2.60933e-05
3.20273e-05
3.05798e-05
3.39898e-05
3.38452e-05
3.02552e-05
3.05458e-05
3.07473e-05
3.0961e-05
2.94888e-05
2.98325e-05
2.91994e-05
2.96649e-05
3.00585e-05
2.61781e-05
2.10647e-05
7.85698e-07
1.06874e-06
-6.94479e-06
3.90332e-06
5.45046e-06
1.58486e-05
1.92376e-05
2.56046e-05
2.73446e-05
3.01486e-05
2.95196e-05
2.90788e-05
2.81552e-05
2.52096e-05
2.26133e-05
1.84068e-05
1.24991e-05
9.31057e-06
3.23406e-06
8.50203e-06
8.23302e-06
2.00093e-05
1.76119e-05
2.55635e-05
2.28961e-05
2.72465e-05
2.64454e-05
2.91236e-05
2.88114e-05
2.77347e-05
2.72063e-05
2.75202e-05
2.72578e-05
2.55556e-05
2.5211e-05
2.42466e-05
2.28781e-05
2.39372e-05
1.92596e-05
1.82228e-05
4.72379e-06
6.75298e-06
9.89981e-07
9.01657e-06
1.00772e-05
1.72713e-05
1.98441e-05
2.44601e-05
2.52725e-05
2.72919e-05
2.61706e-05
2.61937e-05
2.51852e-05
2.28051e-05
2.12053e-05
1.83585e-05
1.35192e-05
1.28521e-05
6.6253e-06
1.1581e-05
9.01779e-06
1.84069e-05
1.58812e-05
2.20742e-05
2.06812e-05
2.39776e-05
2.39815e-05
2.60767e-05
2.56204e-05
2.59872e-05
2.49976e-05
2.55824e-05
2.47121e-05
2.31238e-05
2.24065e-05
2.1532e-05
1.86811e-05
2.02998e-05
1.52308e-05
1.6963e-05
7.57592e-06
1.11373e-05
6.40968e-06
1.29339e-05
1.36543e-05
1.85881e-05
2.06961e-05
2.37139e-05
2.40463e-05
2.56858e-05
2.36324e-05
2.44621e-05
2.33675e-05
2.10906e-05
2.01359e-05
1.8325e-05
1.39513e-05
1.51971e-05
8.8637e-06
1.39799e-05
9.66663e-06
1.75659e-05
1.46413e-05
1.99074e-05
1.95019e-05
2.15968e-05
2.26077e-05
2.42781e-05
2.3473e-05
2.53574e-05
2.33728e-05
2.4519e-05
2.3061e-05
2.12422e-05
2.12586e-05
1.98686e-05
1.62315e-05
1.92494e-05
1.27243e-05
1.72017e-05
8.92788e-06
1.42941e-05
1.01885e-05
1.53474e-05
1.64821e-05
1.93826e-05
2.15419e-05
2.32071e-05
2.28781e-05
2.43535e-05
2.18374e-05
2.35264e-05
2.1811e-05
1.99121e-05
1.95135e-05
1.84014e-05
1.33819e-05
1.67229e-05
9.64473e-06
1.57959e-05
9.84247e-06
1.75831e-05
1.35193e-05
1.85188e-05
1.87836e-05
2.01231e-05
2.20018e-05
2.27508e-05
2.20933e-05
2.52464e-05
2.14809e-05
2.4091e-05
2.24895e-05
1.97619e-05
2.0384e-05
1.91917e-05
1.46755e-05
1.91729e-05
1.13477e-05
1.79594e-05
9.72175e-06
1.65637e-05
1.21728e-05
1.71583e-05
1.85363e-05
1.91129e-05
2.23195e-05
2.33084e-05
2.18299e-05
2.38647e-05
1.99624e-05
2.29893e-05
2.07939e-05
1.83055e-05
1.95057e-05
1.8195e-05
1.23463e-05
1.82124e-05
8.83795e-06
1.75627e-05
8.97713e-06
1.7731e-05
1.26211e-05
1.73315e-05
1.87805e-05
1.86729e-05
2.17813e-05
2.1649e-05
2.03578e-05
2.50884e-05
2.02225e-05
2.41769e-05
2.15144e-05
1.85513e-05
2.04118e-05
1.88144e-05
1.29415e-05
1.98371e-05
9.99954e-06
1.92116e-05
9.6183e-06
1.85487e-05
1.27532e-05
1.78827e-05
1.97566e-05
1.89124e-05
2.31184e-05
2.27039e-05
2.08915e-05
2.40709e-05
1.72674e-05
2.29562e-05
2.0382e-05
1.5697e-05
1.99659e-05
1.79254e-05
1.03423e-05
1.93956e-05
7.09798e-06
1.8972e-05
7.42087e-06
1.82883e-05
1.11238e-05
1.61227e-05
1.93846e-05
1.64097e-05
2.18544e-05
2.10102e-05
1.78057e-05
2.51532e-05
1.83461e-05
2.46813e-05
2.07506e-05
1.68885e-05
2.10921e-05
1.83924e-05
1.06945e-05
2.13678e-05
7.7149e-06
2.10966e-05
8.04779e-06
2.02284e-05
1.19523e-05
1.79763e-05
2.06225e-05
1.77106e-05
2.40068e-05
2.19812e-05
1.94773e-05
2.41563e-05
1.40269e-05
2.37936e-05
1.92363e-05
1.23529e-05
2.11389e-05
1.74371e-05
6.62525e-06
2.11071e-05
3.59155e-06
2.08149e-05
4.23944e-06
1.92915e-05
8.31635e-06
1.4617e-05
1.96851e-05
1.35663e-05
2.25461e-05
1.94879e-05
1.47201e-05
2.58204e-05
1.54955e-05
2.56576e-05
1.97801e-05
1.36874e-05
2.23956e-05
1.76893e-05
7.65557e-06
2.29514e-05
4.57542e-06
2.28189e-05
5.33108e-06
2.14781e-05
9.46301e-06
1.73874e-05
2.16348e-05
1.52232e-05
2.49636e-05
2.0811e-05
1.66269e-05
2.50891e-05
7.585e-06
2.63961e-05
1.82536e-05
5.38947e-06
2.4356e-05
1.68448e-05
-1.2516e-06
2.46737e-05
-3.72888e-06
2.43281e-05
-2.66744e-06
2.17187e-05
1.89411e-06
1.20258e-05
2.10874e-05
7.47142e-06
2.46146e-05
1.78273e-05
8.76331e-06
2.62149e-05
1.03384e-05
2.75049e-05
1.76164e-05
8.19883e-06
2.50092e-05
1.59318e-05
1.69206e-06
2.51565e-05
-1.26905e-06
2.48629e-05
-2.00812e-07
2.26543e-05
4.18482e-06
1.55157e-05
2.18276e-05
1.0164e-05
2.6235e-05
1.79926e-05
1.17833e-05
2.82834e-05
-6.76419e-06
3.40721e-05
1.4418e-05
-1.1975e-05
3.40253e-05
1.38326e-05
-1.99369e-05
3.23842e-05
-2.06821e-05
3.13142e-05
-1.89725e-05
2.70518e-05
-1.40782e-05
6.78631e-06
2.45746e-05
-6.66863e-06
3.08994e-05
1.29159e-05
-5.60493e-06
-0.0109869
-0.0105945
-0.0102888
-0.0100774
-0.00996109
-0.00994877
-0.0100699
-0.0103048
-0.0106477
-0.0110744
-0.0115626
-0.012061
-0.0125067
-0.0128216
-0.0129549
-0.0129172
-0.0127165
-0.0123684
-0.0119231
-0.0114435
0.00232619
0.00228029
0.00214921
0.00198781
0.00183382
0.00174399
0.00167496
0.00158983
0.00146775
0.00131343
0.00111142
0.000888389
0.00069938
0.000605156
0.000667448
0.000935762
0.00131239
0.00170486
0.00203609
0.00225041
-0.00233644
-0.00210112
-0.00191572
-0.00178008
-0.00173075
-0.00178678
-0.00191447
-0.00206438
-0.00228242
-0.00253855
-0.00286999
-0.00322099
-0.0035236
-0.00369324
-0.0037297
-0.00365453
-0.00346614
-0.00318809
-0.00288644
-0.00259714
0.0029103
0.00297368
0.00299789
0.00301532
0.00302027
0.00302019
0.00295354
0.00287542
0.0027088
0.00251592
0.00218814
0.00181917
0.00151275
0.00138239
0.00150997
0.00176957
0.00210804
0.00241339
0.00264773
0.00281066
-0.000458595
-0.00031091
-0.00023801
-0.000191045
-0.000228562
-0.000244338
-0.000305709
-0.000352614
-0.000508092
-0.000704309
-0.00112501
-0.00163086
-0.00205873
-0.00228685
-0.00231016
-0.0021276
-0.00177022
-0.0013623
-0.000981278
-0.000674105
0.00202444
0.00212606
0.00217664
0.0022224
0.00221867
0.00220855
0.0021257
0.00205412
0.00185855
0.00163446
0.00112053
0.000583587
0.000208288
0.000148389
0.000363945
0.000721978
0.00110022
0.00142777
0.00169154
0.00188963
6.06512e-05
0.000104662
0.000108768
0.000112962
9.06031e-05
0.000112614
8.22509e-05
7.50045e-05
-7.18718e-05
-0.000282449
-0.000891033
-0.00153957
-0.00194216
-0.00199609
-0.00169889
-0.00124499
-0.000786641
-0.000429661
-0.000177203
-2.09294e-05
0.00125597
0.00132611
0.00135885
0.00139284
0.00136833
0.00135444
0.0012774
0.00121144
0.00102326
0.000771401
0.000115621
-0.000489582
-0.000756664
-0.000571895
-0.000172676
0.000240294
0.000601664
0.000855772
0.00104166
0.00116894
0.000173772
0.000183599
0.000171166
0.000172266
0.000164775
0.000189049
0.000169171
0.000164379
4.11031e-05
-0.000181161
-0.000863765
-0.00150397
-0.00171874
-0.0014562
-0.000968717
-0.000552351
-0.000224433
-3.10362e-05
9.07529e-05
0.000150616
0.000743462
0.000783619
0.00079992
0.000815487
0.000792688
0.000777403
0.000717497
0.000662399
0.000518169
0.000290329
-0.000337121
-0.000847123
-0.000856251
-0.000556926
-0.000132871
0.00016655
0.000398588
0.000530511
0.000630961
0.000695525
0.000179024
0.000182786
0.000172529
0.000178236
0.000172872
0.000191193
0.000176551
0.000180542
9.87238e-05
-4.70228e-05
-0.000623438
-0.00115688
-0.00109764
-0.000794617
-0.000407471
-0.000171902
6.53534e-06
8.88897e-05
0.000147371
0.00017026
0.000436526
0.000457482
0.000463519
0.000469666
0.000450516
0.000437508
0.000393631
0.000357596
0.00026587
0.000139355
-0.000326246
-0.000619874
-0.000506735
-0.00023963
3.32955e-05
0.000170647
0.00028387
0.000332827
0.00038269
0.000411443
0.000155864
0.0001605
0.000155581
0.000162903
0.000158195
0.000173651
0.000164413
0.000190833
0.000156146
0.000180895
-0.000199744
-0.000575267
-0.000489163
-0.000328006
-0.0001175
-2.51212e-05
6.68809e-05
9.95031e-05
0.000135269
0.000147628
0.000262263
0.000272912
0.000273753
0.000276109
0.000259874
0.000249766
0.00021674
0.000198041
0.000150916
0.000142318
-8.04717e-05
-0.000198062
-0.000125542
-1.0321e-05
0.000111803
0.0001434
0.000195163
0.000207829
0.000235752
0.000248343
0.000127523
0.000133297
0.000132141
0.000139195
0.0001353
0.000148785
0.000144395
0.00018535
0.000191668
0.000365579
0.000228874
-0.000146372
-0.000154565
-0.000139836
-4.82529e-05
-1.03884e-05
5.47067e-05
7.59286e-05
0.000106759
0.00011769
0.000166166
0.000171881
0.000170709
0.000171404
0.000157762
0.00014936
0.000122332
0.000109806
7.80681e-05
0.000145088
0.00025164
8.33011e-06
-2.29403e-05
-1.50757e-05
5.42512e-05
6.7761e-05
0.000114969
0.000125816
0.000149143
0.000156851
0.000102668
0.000108158
0.000108638
0.000114262
0.000110956
0.000120338
0.000116543
0.000141315
0.000130459
0.000185719
0.000108642
-6.10588e-05
-5.50111e-05
-7.62964e-05
-1.48431e-05
-4.36248e-06
4.27457e-05
5.73122e-05
8.34159e-05
9.2907e-05
0.000114307
0.000117281
0.000115617
0.000115552
0.000104558
9.73628e-05
7.62726e-05
6.32581e-05
4.1409e-05
4.33e-05
7.5302e-05
4.57496e-06
2.91017e-05
2.15209e-05
6.15662e-05
5.82079e-05
8.67198e-05
8.86109e-05
0.000104393
0.000108087
8.38026e-05
8.79602e-05
8.87534e-05
9.25737e-05
8.95637e-05
9.5096e-05
9.22682e-05
0.000104266
9.67825e-05
0.000106189
6.34078e-05
-2.57676e-05
-1.74717e-05
-4.13623e-05
2.94487e-07
3.54544e-06
3.81856e-05
4.77841e-05
6.82676e-05
7.54145e-05
8.58904e-05
8.73036e-05
8.58328e-05
8.5389e-05
7.68864e-05
7.09912e-05
5.52831e-05
4.32359e-05
2.73672e-05
1.71087e-05
3.10769e-05
8.91484e-06
3.95658e-05
3.09391e-05
5.91654e-05
5.1483e-05
7.03308e-05
6.89218e-05
7.98933e-05
8.14754e-05
7.06262e-05
7.31123e-05
7.37295e-05
7.59016e-05
7.28209e-05
7.55288e-05
7.30749e-05
7.75059e-05
7.37404e-05
7.0047e-05
4.88344e-05
-5.59351e-06
5.00903e-07
-1.95287e-05
9.78772e-06
1.08988e-05
3.66768e-05
4.33152e-05
5.89598e-05
6.3779e-05
6.98131e-05
7.01869e-05
6.92159e-05
6.8568e-05
6.21273e-05
5.7634e-05
4.63697e-05
3.61419e-05
2.57618e-05
1.41803e-05
2.27224e-05
1.40117e-05
4.07097e-05
3.2866e-05
5.37889e-05
4.64152e-05
5.97409e-05
5.78594e-05
6.58684e-05
6.64294e-05
6.19987e-05
6.27774e-05
6.32991e-05
6.40941e-05
6.09363e-05
6.17131e-05
5.92174e-05
5.91804e-05
5.81688e-05
5.01603e-05
4.18027e-05
6.18064e-06
1.24205e-05
-2.85788e-06
1.84783e-05
1.86757e-05
3.74417e-05
4.21093e-05
5.3651e-05
5.65023e-05
6.06717e-05
5.99201e-05
5.96165e-05
5.87018e-05
5.35865e-05
5.03081e-05
4.31169e-05
3.41118e-05
2.87473e-05
1.76156e-05
2.47573e-05
1.8193e-05
3.95132e-05
3.20108e-05
4.84012e-05
4.28957e-05
5.26343e-05
5.15324e-05
5.75964e-05
5.74204e-05
5.66533e-05
5.57396e-05
5.6523e-05
5.63216e-05
5.29323e-05
5.27089e-05
5.01705e-05
4.71851e-05
4.82483e-05
3.88372e-05
3.79237e-05
1.37758e-05
2.15612e-05
1.00103e-05
2.60586e-05
2.59957e-05
3.90381e-05
4.25707e-05
5.08421e-05
5.19674e-05
5.5403e-05
5.34073e-05
5.39222e-05
5.25364e-05
4.82641e-05
4.63712e-05
4.14314e-05
3.35295e-05
3.28065e-05
2.11324e-05
2.93035e-05
2.07497e-05
3.82479e-05
3.11422e-05
4.40369e-05
4.07909e-05
4.79349e-05
4.80726e-05
5.25578e-05
5.18013e-05
5.32438e-05
5.10946e-05
5.25334e-05
5.11331e-05
4.79241e-05
4.72915e-05
4.5156e-05
3.97413e-05
4.27108e-05
3.2352e-05
3.67222e-05
1.90317e-05
2.86293e-05
1.88243e-05
3.18825e-05
3.18186e-05
4.06571e-05
4.37876e-05
4.91398e-05
4.92597e-05
5.25243e-05
4.85856e-05
5.06009e-05
4.86907e-05
4.45306e-05
4.37276e-05
4.04082e-05
3.27223e-05
3.58199e-05
2.34292e-05
3.31929e-05
2.2463e-05
3.79326e-05
3.04862e-05
4.14529e-05
4.00895e-05
4.45546e-05
4.6427e-05
4.96187e-05
4.80543e-05
5.19188e-05
4.76674e-05
5.04114e-05
4.7773e-05
4.41634e-05
4.48623e-05
4.2138e-05
3.51557e-05
4.1321e-05
2.82043e-05
3.78218e-05
2.15431e-05
3.38698e-05
2.48317e-05
3.55081e-05
3.65192e-05
4.1546e-05
4.52287e-05
4.80386e-05
4.69381e-05
5.04454e-05
4.50142e-05
4.89048e-05
4.56734e-05
4.18387e-05
4.22657e-05
3.99258e-05
3.07596e-05
3.81284e-05
2.37107e-05
3.64517e-05
2.29521e-05
3.87664e-05
2.95109e-05
3.98449e-05
3.99352e-05
4.2314e-05
4.59966e-05
4.72277e-05
4.55083e-05
5.16566e-05
4.39703e-05
4.96212e-05
4.62621e-05
4.11003e-05
4.33099e-05
4.07731e-05
3.18813e-05
4.16521e-05
2.54759e-05
3.9787e-05
2.26546e-05
3.78059e-05
2.78225e-05
3.81524e-05
4.00545e-05
4.07936e-05
4.67129e-05
4.7879e-05
4.48059e-05
4.9807e-05
4.13115e-05
4.81451e-05
4.36412e-05
3.85582e-05
4.21179e-05
3.92389e-05
2.80942e-05
4.07108e-05
2.15394e-05
3.98041e-05
2.14088e-05
3.97726e-05
2.82914e-05
3.83191e-05
4.06591e-05
3.98459e-05
4.61837e-05
4.54174e-05
4.23661e-05
5.15877e-05
4.10061e-05
4.98929e-05
4.43432e-05
3.8242e-05
4.34702e-05
3.98926e-05
2.81269e-05
4.33048e-05
2.23723e-05
4.25779e-05
2.18403e-05
4.13478e-05
2.82666e-05
3.90667e-05
4.23814e-05
3.98058e-05
4.83211e-05
4.66824e-05
4.2598e-05
5.03258e-05
3.62037e-05
4.84442e-05
4.24912e-05
3.35962e-05
4.31092e-05
3.84724e-05
2.3711e-05
4.3206e-05
1.75588e-05
4.28662e-05
1.81861e-05
4.13946e-05
2.55375e-05
3.64918e-05
4.21225e-05
3.58038e-05
4.68771e-05
4.40748e-05
3.77618e-05
5.20022e-05
3.67581e-05
5.11425e-05
4.26674e-05
3.42844e-05
4.50341e-05
3.88732e-05
2.30847e-05
4.64928e-05
1.72726e-05
4.64537e-05
1.81385e-05
4.45547e-05
2.5987e-05
3.88438e-05
4.41574e-05
3.68729e-05
5.02171e-05
4.50803e-05
3.92783e-05
5.08568e-05
2.97505e-05
5.03991e-05
4.01955e-05
2.69546e-05
4.56675e-05
3.72707e-05
1.62195e-05
4.68463e-05
1.03021e-05
4.68151e-05
1.17526e-05
4.37499e-05
1.99926e-05
3.39311e-05
4.31215e-05
3.02346e-05
4.8623e-05
4.11761e-05
3.18144e-05
5.34648e-05
3.03224e-05
5.36186e-05
4.04746e-05
2.72397e-05
4.81958e-05
3.72455e-05
1.58831e-05
5.0256e-05
9.89161e-06
5.04679e-05
1.16638e-05
4.73858e-05
2.01695e-05
3.73172e-05
4.61817e-05
3.12127e-05
5.25318e-05
4.24416e-05
3.31482e-05
5.28022e-05
1.78507e-05
5.55118e-05
3.7787e-05
1.41227e-05
5.20016e-05
3.56041e-05
1.70876e-06
5.36725e-05
-3.47173e-06
5.35345e-05
-1.14885e-06
4.83597e-05
8.06685e-06
2.94478e-05
4.57279e-05
1.90407e-05
5.27088e-05
3.75492e-05
2.0908e-05
5.48609e-05
1.95029e-05
5.81964e-05
3.62216e-05
1.55911e-05
5.4357e-05
3.37687e-05
3.09782e-06
5.56376e-05
-2.6845e-06
5.55069e-05
-2.00658e-07
5.05512e-05
8.93381e-06
3.35715e-05
4.72913e-05
2.07093e-05
5.58986e-05
3.69274e-05
2.30823e-05
5.81347e-05
-5.05506e-06
6.85121e-05
3.11238e-05
-1.32668e-05
6.84306e-05
3.03288e-05
-2.79154e-05
6.69532e-05
-3.07364e-05
6.56383e-05
-2.72756e-05
5.74359e-05
-1.74172e-05
2.13849e-05
5.15618e-05
-3.38985e-06
6.32258e-05
2.8953e-05
-1.63822e-06
-0.0135298
-0.0129808
-0.0125316
-0.012204
-0.0120122
-0.0119859
-0.0121412
-0.0124567
-0.0129213
-0.0134994
-0.0141546
-0.0148184
-0.0154096
-0.0158338
-0.0160271
-0.0159974
-0.0157564
-0.0153253
-0.0147627
-0.0141415
0.00193437
0.00199126
0.00192505
0.00179068
0.00163343
0.00151834
0.00138219
0.00120738
0.000972637
0.000687743
0.000341645
-2.52841e-05
-0.000337025
-0.000510501
-0.000465359
-0.00015215
0.000325962
0.000859898
0.00135104
0.00172255
-0.00274642
-0.00243866
-0.00222239
-0.00208739
-0.00207335
-0.00218085
-0.0023777
-0.00261759
-0.00295223
-0.00334971
-0.00384938
-0.0043715
-0.00481347
-0.00505165
-0.00507943
-0.00489742
-0.00453537
-0.00405837
-0.00356795
-0.00312199
0.00338187
0.00345932
0.00347788
0.00348061
0.00345801
0.00341395
0.00328829
0.00313283
0.00285455
0.00251838
0.00200374
0.0014508
0.00102381
0.000887827
0.00113748
0.00158355
0.00213139
0.00262096
0.00299162
0.0032399
-0.000285185
-0.00012617
-5.51094e-05
-1.88224e-05
-7.96809e-05
-0.000120814
-0.000230616
-0.00034417
-0.000611099
-0.000961844
-0.0016021
-0.0023155
-0.00284474
-0.00304784
-0.00291548
-0.00251675
-0.001951
-0.00138187
-0.000895909
-0.000529298
0.00247797
0.00259717
0.00265323
0.00269987
0.00267698
0.00264354
0.00251212
0.00237513
0.00206422
0.00167624
0.000918572
0.000183564
-0.000249144
-0.000194008
0.000213622
0.000771167
0.00130835
0.00174359
0.0020758
0.00231681
0.000290882
0.000348656
0.000355659
0.000357961
0.000326108
0.000334316
0.000266353
0.000205513
-5.07343e-05
-0.000428878
-0.00130562
-0.00214893
-0.0025755
-0.00248178
-0.00197891
-0.00134314
-0.000752255
-0.00031096
-3.78965e-06
0.000187811
0.00158488
0.00167348
0.00171334
0.00174988
0.00171287
0.00168294
0.00156689
0.00144679
0.00115077
0.000728908
-0.000200175
-0.000970992
-0.00120055
-0.000857826
-0.000266444
0.000288729
0.000752437
0.00107367
0.00130922
0.00147253
0.000370698
0.000392113
0.000381875
0.000385355
0.000369838
0.000385564
0.000336365
0.000289362
7.14566e-05
-0.000312701
-0.00126944
-0.00205865
-0.00219999
-0.00176822
-0.00110771
-0.000574988
-0.000163401
8.29821e-05
0.000244241
0.000330627
0.000967422
0.00102024
0.00104049
0.00105745
0.00102545
0.000999549
0.000910656
0.00081548
0.000585667
0.000209203
-0.000674622
-0.00129122
-0.001201
-0.000747702
-0.00018305
0.000203776
0.000502628
0.000677396
0.000812944
0.000902093
0.000329511
0.000341335
0.000332268
0.000340403
0.000328764
0.000342063
0.000306599
0.000283515
0.000133292
-0.000135302
-0.000946338
-0.00156716
-0.00139599
-0.000962995
-0.000461255
-0.000160891
7.02752e-05
0.00018407
0.000269292
0.000309257
0.000586652
0.000615421
0.000623111
0.000630379
0.000604114
0.00058463
0.000521071
0.000460997
0.000313399
8.70006e-05
-0.00057605
-0.000910431
-0.00069494
-0.00032534
3.16317e-05
0.000211622
0.000364264
0.000435796
0.00050774
0.000550838
0.000266203
0.000276531
0.000272395
0.000281865
0.000272397
0.000285919
0.00026368
0.000279676
0.000206661
0.000171448
-0.000374019
-0.000792597
-0.000621608
-0.000393161
-0.000119439
5.531e-07
0.000124088
0.000173171
0.000226896
0.000249914
0.000364333
0.000379955
0.00038138
0.000384778
0.000362994
0.000349325
0.000303457
0.000274249
0.00019854
0.000146877
-0.000189879
-0.000322428
-0.000185647
-2.69227e-05
0.000136441
0.000181887
0.000256548
0.000279916
0.000322381
0.000343396
0.000208013
0.000218004
0.000217464
0.000226386
0.000218863
0.000232301
0.000220328
0.000262059
0.000254079
0.000423664
0.000205029
-0.00022792
-0.000194072
-0.000162123
-3.66733e-05
1.1143e-05
9.83545e-05
0.000129297
0.000173777
0.000192008
0.000238197
0.000247291
0.000246286
0.000247877
0.000229775
0.000219291
0.00018312
0.000166709
0.000120672
0.000188051
0.000272719
-3.08649e-05
-4.12254e-05
-2.5132e-05
7.11408e-05
9.17615e-05
0.000157835
0.000175717
0.000210416
0.000223748
0.000162743
0.000171329
0.000172243
0.000179323
0.000173081
0.000182717
0.000173588
0.000199919
0.000179855
0.00023917
0.000132107
-8.80823e-05
-6.91182e-05
-9.18563e-05
-6.22515e-06
9.34798e-06
7.47341e-05
9.62123e-05
0.000133366
0.000148121
0.000168003
0.000173268
0.000171593
0.000172194
0.000157573
0.00014886
0.000120846
0.000104903
7.3728e-05
7.41052e-05
9.73974e-05
-5.63446e-06
3.07124e-05
2.03878e-05
7.89575e-05
7.74271e-05
0.000120079
0.000126054
0.000150519
0.000157937
0.000130643
0.000136904
0.000137928
0.000142727
0.000137224
0.000142756
0.000135895
0.000148011
0.000134465
0.000142456
8.56138e-05
-3.37905e-05
-1.73122e-05
-4.70601e-05
1.15585e-05
1.66536e-05
6.50207e-05
7.89097e-05
0.000107827
0.000118537
0.000128446
0.000131305
0.000129743
0.000129699
0.000118244
0.000111106
9.017e-05
7.52115e-05
5.28932e-05
3.85524e-05
4.8345e-05
9.58431e-06
5.01884e-05
3.66976e-05
7.82293e-05
6.99289e-05
9.90507e-05
9.9768e-05
0.000117197
0.000121136
0.000109142
0.000112863
0.000113559
0.000116256
0.000110968
0.00011339
0.000107758
0.000111161
0.000103511
9.60477e-05
6.81774e-05
-4.55175e-06
8.11795e-06
-1.77927e-05
2.39384e-05
2.53229e-05
6.12539e-05
7.04825e-05
9.24053e-05
9.94716e-05
0.000105599
0.000106699
0.000105646
0.000105127
9.62504e-05
9.07357e-05
7.55919e-05
6.25337e-05
4.80618e-05
3.1722e-05
3.88053e-05
2.03362e-05
5.54232e-05
4.28255e-05
7.36755e-05
6.5004e-05
8.59053e-05
8.5201e-05
9.80148e-05
9.99816e-05
9.54105e-05
9.66381e-05
9.72121e-05
9.81252e-05
9.29601e-05
9.3279e-05
8.8235e-05
8.64553e-05
8.32539e-05
7.0832e-05
6.00123e-05
1.25782e-05
2.46486e-05
4.38192e-06
3.50849e-05
3.49581e-05
6.11481e-05
6.74521e-05
8.35861e-05
8.77051e-05
9.24083e-05
9.16843e-05
9.14198e-05
9.03482e-05
8.31275e-05
7.90501e-05
6.90782e-05
5.72862e-05
4.9837e-05
3.39203e-05
4.14965e-05
2.79726e-05
5.63849e-05
4.46315e-05
6.87491e-05
6.20684e-05
7.74023e-05
7.71479e-05
8.67642e-05
8.7278e-05
8.70251e-05
8.58048e-05
8.67877e-05
8.63367e-05
8.10519e-05
8.03773e-05
7.57859e-05
7.05508e-05
7.08858e-05
5.68543e-05
5.61654e-05
2.36804e-05
3.70507e-05
2.13127e-05
4.46436e-05
4.41782e-05
6.25102e-05
6.7262e-05
7.88102e-05
8.04475e-05
8.47727e-05
8.20853e-05
8.29194e-05
8.10405e-05
7.48506e-05
7.24685e-05
6.54582e-05
5.47259e-05
5.37013e-05
3.7085e-05
4.73108e-05
3.27345e-05
5.65998e-05
4.56663e-05
6.479e-05
6.08077e-05
7.19841e-05
7.30154e-05
8.00211e-05
7.93902e-05
8.18559e-05
7.86472e-05
8.0659e-05
7.85855e-05
7.35498e-05
7.26612e-05
6.88705e-05
6.07072e-05
6.43668e-05
4.90241e-05
5.57149e-05
3.12672e-05
4.65739e-05
3.29349e-05
5.19502e-05
5.16775e-05
6.41141e-05
6.84656e-05
7.59852e-05
7.60533e-05
8.0603e-05
7.50876e-05
7.7985e-05
7.51827e-05
6.91027e-05
6.82407e-05
6.32928e-05
5.24931e-05
5.69795e-05
3.91425e-05
5.2555e-05
3.58239e-05
5.75848e-05
4.6364e-05
6.26564e-05
6.10926e-05
6.81657e-05
7.13081e-05
7.61122e-05
7.41516e-05
7.96656e-05
7.33828e-05
7.73921e-05
7.35793e-05
6.80205e-05
6.90366e-05
6.47914e-05
5.44853e-05
6.30332e-05
4.39853e-05
5.80007e-05
3.50529e-05
5.37205e-05
4.07478e-05
5.65581e-05
5.78184e-05
6.49145e-05
7.02294e-05
7.4204e-05
7.25046e-05
7.78426e-05
6.9797e-05
7.54859e-05
7.08049e-05
6.48841e-05
6.59547e-05
6.2163e-05
4.91933e-05
5.98734e-05
3.88762e-05
5.71916e-05
3.69057e-05
5.96755e-05
4.61398e-05
6.14061e-05
6.18848e-05
6.55066e-05
7.11625e-05
7.30552e-05
7.04621e-05
7.90793e-05
6.8001e-05
7.61347e-05
7.10508e-05
6.34708e-05
6.69325e-05
6.28615e-05
4.97762e-05
6.39713e-05
4.03212e-05
6.13393e-05
3.65626e-05
5.92007e-05
4.45555e-05
5.98102e-05
6.25473e-05
6.37214e-05
7.22132e-05
7.36201e-05
6.92593e-05
7.70035e-05
6.44015e-05
7.44772e-05
6.78151e-05
6.00591e-05
6.56174e-05
6.10229e-05
4.50204e-05
6.33696e-05
3.55637e-05
6.20167e-05
3.50588e-05
6.18359e-05
4.49976e-05
5.99629e-05
6.35066e-05
6.23181e-05
7.18087e-05
7.06709e-05
6.60513e-05
7.89981e-05
6.33289e-05
7.64672e-05
6.82667e-05
5.90044e-05
6.71992e-05
6.15648e-05
4.42644e-05
6.66335e-05
3.57657e-05
6.56641e-05
3.51636e-05
6.41217e-05
4.48381e-05
6.08272e-05
6.58336e-05
6.19119e-05
7.44521e-05
7.18544e-05
6.57321e-05
7.76568e-05
5.72175e-05
7.50312e-05
6.58925e-05
5.3102e-05
6.70215e-05
5.9823e-05
3.85398e-05
6.70546e-05
2.96725e-05
6.66455e-05
3.05545e-05
6.46171e-05
4.13706e-05
5.78226e-05
6.58034e-05
5.69174e-05
7.31056e-05
6.8653e-05
5.97131e-05
7.96351e-05
5.68479e-05
7.829e-05
6.57442e-05
5.28681e-05
6.95059e-05
6.00513e-05
3.6727e-05
7.12659e-05
2.82703e-05
7.1306e-05
2.96597e-05
6.86368e-05
4.12296e-05
6.02245e-05
6.841e-05
5.7379e-05
7.71504e-05
6.94216e-05
6.05403e-05
7.84892e-05
4.80202e-05
7.78603e-05
6.26229e-05
4.36697e-05
7.07075e-05
5.80331e-05
2.78984e-05
7.2331e-05
1.93401e-05
7.24331e-05
2.15312e-05
6.8205e-05
3.36627e-05
5.44574e-05
6.74875e-05
4.91195e-05
7.57258e-05
6.46105e-05
5.13219e-05
8.15929e-05
4.72594e-05
8.1981e-05
6.24797e-05
4.24915e-05
7.42143e-05
5.76767e-05
2.58527e-05
7.6901e-05
1.726e-05
7.73192e-05
1.99858e-05
7.28067e-05
3.25801e-05
5.77533e-05
7.12364e-05
4.89912e-05
8.05541e-05
6.54716e-05
5.15285e-05
8.10257e-05
3.20707e-05
8.47381e-05
5.90095e-05
2.65029e-05
7.92997e-05
5.55067e-05
8.5213e-06
8.1522e-05
8.49555e-07
8.15236e-05
4.30328e-06
7.43649e-05
1.77647e-05
4.84986e-05
7.09319e-05
3.423e-05
8.12032e-05
5.93395e-05
3.67081e-05
8.36225e-05
3.2164e-05
8.85885e-05
5.6705e-05
2.61649e-05
8.30299e-05
5.30224e-05
7.88366e-06
8.47132e-05
-3.54579e-07
8.46949e-05
3.4072e-06
7.74751e-05
1.6903e-05
5.24268e-05
7.30996e-05
3.4445e-05
8.54484e-05
5.7936e-05
3.74701e-05
8.7222e-05
4.29986e-06
0.000100642
5.06135e-05
-6.50101e-06
9.95071e-05
4.89362e-05
-2.72371e-05
9.79374e-05
-3.22011e-05
9.65419e-05
-2.73105e-05
8.53727e-05
-1.30467e-05
3.84741e-05
7.79157e-05
7.14451e-06
9.38476e-05
4.83578e-05
9.55536e-06
-0.0149497
-0.0143247
-0.013811
-0.0134357
-0.0132219
-0.0132059
-0.013395
-0.0137673
-0.0143088
-0.0149765
-0.0157259
-0.0164776
-0.0171395
-0.0176077
-0.0178141
-0.0177671
-0.0174815
-0.0169859
-0.0163465
-0.0156431
0.00141563
0.00152448
0.00149527
0.00138193
0.00123486
0.00111136
0.000935022
0.000702864
0.000392763
2.06892e-05
-0.00041888
-0.000873679
-0.00125307
-0.00146172
-0.00140891
-0.00105284
-0.000506979
0.000109727
0.000686375
0.00113707
-0.00310467
-0.00274855
-0.00250905
-0.0023706
-0.00238097
-0.00252209
-0.00276673