/*--------------------------------*- C++ -*----------------------------------*\
| =========                 |                                                 |
| \\      /  F ield         | OpenFOAM: The Open Source CFD Toolbox           |
|  \\    /   O peration     | Version:  2.4.0                                 |
|   \\  /    A nd           | Web:      www.OpenFOAM.org                      |
|    \\/     M anipulation  |                                                 |
\*---------------------------------------------------------------------------*/
FoamFile
{
    version     2.0;
    format      ascii;
    class       volScalarField;
    location    "30";
    object      epsilon;
}
// * * * * * * * * * * * * * * * * * * * * * * * * * * * * * * * * * * * * * //

dimensions      [0 2 -3 0 0 0 0];

internalField   nonuniform List<scalar> 
283312
(
0.000444843
0.000439131
0.000434749
0.000432063
0.000430946
0.000430971
0.000431733
0.000432991
0.0004346
0.000435979
0.000436225
0.000435736
0.000436002
0.000437819
0.00044068
0.000443254
0.000444345
0.000443391
0.000440635
0.000438048
0.000415691
0.0004081
0.000402326
0.000398604
0.000396695
0.000396172
0.000396676
0.000398075
0.000400433
0.000402775
0.000404235
0.000406349
0.000410706
0.000416869
0.000422562
0.000425692
0.000425219
0.00042151
0.000416042
0.000411166
0.000383612
0.000375228
0.000369857
0.000367336
0.000366684
0.000367136
0.000368412
0.000370571
0.000374276
0.000377914
0.00038098
0.000385806
0.000392569
0.000399683
0.000403624
0.000402757
0.000398021
0.00039158
0.000385127
0.000380069
0.000359229
0.000351158
0.000346797
0.000345341
0.00034556
0.000346604
0.000348353
0.000351023
0.000356693
0.000362166
0.000367648
0.000375914
0.00038432
0.000389232
0.000387683
0.000381674
0.000374261
0.000367186
0.000360957
0.000356257
0.000341635
0.000334344
0.000331004
0.000330245
0.000330904
0.000332138
0.000333992
0.000336787
0.000345017
0.000352437
0.000360722
0.000371923
0.000379053
0.000378096
0.000370682
0.000362061
0.000354458
0.000348124
0.000342845
0.000338987
0.000329419
0.000323003
0.000320398
0.000319803
0.000320562
0.00032179
0.000323571
0.000326288
0.000337267
0.000346417
0.000356226
0.000369137
0.000372605
0.000365276
0.000354615
0.000345983
0.000339437
0.000334313
0.000330126
0.000327087
0.000321065
0.00031542
0.000313293
0.000312592
0.000313194
0.000314293
0.000315874
0.000318375
0.000331632
0.000342423
0.000349182
0.000361563
0.000362026
0.000351578
0.000340943
0.000333782
0.000328647
0.000324691
0.00032143
0.000319023
0.000315288
0.000310321
0.000308525
0.000307607
0.000307793
0.000308692
0.000309963
0.000312149
0.000327351
0.000340179
0.000347973
0.000361909
0.00035444
0.000340165
0.000330434
0.000324909
0.000321018
0.000317981
0.000315439
0.000313497
0.000311384
0.00030697
0.000305414
0.00030432
0.000303991
0.000304554
0.000305502
0.000307449
0.000326539
0.000341841
0.000347795
0.000356759
0.000343746
0.000329982
0.000322549
0.000318552
0.00031565
0.0003133
0.000311333
0.000309742
0.000308727
0.000304768
0.000303405
0.0003022
0.000301529
0.000301435
0.000302072
0.000303788
0.00032728
0.000344119
0.000347751
0.000353375
0.000334944
0.000322374
0.000316933
0.000313992
0.000311827
0.000309985
0.000308498
0.00030717
0.000306982
0.000303384
0.000302203
0.000300947
0.00030011
0.000299246
0.000299431
0.000300848
0.000325205
0.000343689
0.000347584
0.000351465
0.000327801
0.000316679
0.000312821
0.000310625
0.000309068
0.000307631
0.000306571
0.000305438
0.000305877
0.000302558
0.000301566
0.000300295
0.000299422
0.000298104
0.000297671
0.000298595
0.000321447
0.000341909
0.000351363
0.000351132
0.000322263
0.000312469
0.000309803
0.000308137
0.000307097
0.000305986
0.000305296
0.000304294
0.000305246
0.000302132
0.000301335
0.000300073
0.00029924
0.000297707
0.000296977
0.000296854
0.000321071
0.0003445
0.000347719
0.000353651
0.000317761
0.000309153
0.0003075
0.000306278
0.000305711
0.000304857
0.000304496
0.000303573
0.000304961
0.000301989
0.000301392
0.00030016
0.000299427
0.000297809
0.000297072
0.000295903
0.000320928
0.000347638
0.000352256
0.00035584
0.000313903
0.000306589
0.000305806
0.000304949
0.000304788
0.000304119
0.000304053
0.000303159
0.000304937
0.000302048
0.000301659
0.000300458
0.000299873
0.000298221
0.00029766
0.000296009
0.000321391
0.000350043
0.000352483
0.000355172
0.000310516
0.000304568
0.000304582
0.00030403
0.00030421
0.000303668
0.000303879
0.000302969
0.00030511
0.000302253
0.000302078
0.000300905
0.000300496
0.000298846
0.00029858
0.00029675
0.000321307
0.000361382
0.000365063
0.000339809
0.000307582
0.000303129
0.000303797
0.000303463
0.000303902
0.000303441
0.000303913
0.000302945
0.000305435
0.00030256
0.000302605
0.000301459
0.000301233
0.000299589
0.000299712
0.000297505
0.000303137
0.000341609
0.00035586
0.000312245
0.000304419
0.000302148
0.00030337
0.000303168
0.000303798
0.000303385
0.000304111
0.000303041
0.000305881
0.00030294
0.00030321
0.000302089
0.000302038
0.000300381
0.000300915
0.0002984
0.000300689
0.000301788
0.000315386
0.000301464
0.000303095
0.000301741
0.000303233
0.000303089
0.000303852
0.000303462
0.000304444
0.000303226
0.000306424
0.00030337
0.000303871
0.000302778
0.000302881
0.000301205
0.000302139
0.000299246
0.000301539
0.000298343
0.000304419
0.000299577
0.000303043
0.000301692
0.000303283
0.000303171
0.000304023
0.000303645
0.000304887
0.000303475
0.000307046
0.000303834
0.000304571
0.000303513
0.000303743
0.000302043
0.000303372
0.000300078
0.000302863
0.000298827
0.000303399
0.000299757
0.000303466
0.000301839
0.000303458
0.000303377
0.000304282
0.000303913
0.000305427
0.000303771
0.000307738
0.00030432
0.000305299
0.000304289
0.000304608
0.000302887
0.00030461
0.000300849
0.000304212
0.000299553
0.000304216
0.000300212
0.000304037
0.000302082
0.000303709
0.000303681
0.000304604
0.000304252
0.000306053
0.000304099
0.000308491
0.000304818
0.000306047
0.000305105
0.000305464
0.000303734
0.000305852
0.000301573
0.000305561
0.000300196
0.00030528
0.000300668
0.000304691
0.00030239
0.000304013
0.00030407
0.000304974
0.000304652
0.000306759
0.000304451
0.000309301
0.00030532
0.000306812
0.000305961
0.000306301
0.000304583
0.000307102
0.000302241
0.000306896
0.000300764
0.000306401
0.000301088
0.000305403
0.000302736
0.000304346
0.000304531
0.000305377
0.000305107
0.000307541
0.000304814
0.000310167
0.000305819
0.000307588
0.000306863
0.000307115
0.000305442
0.000308368
0.00030286
0.000308233
0.000301258
0.000307543
0.000301474
0.000306164
0.000303113
0.000304698
0.000305061
0.000305803
0.000305615
0.000308401
0.000305185
0.000311086
0.00030631
0.000308377
0.000307818
0.000307893
0.000306312
0.000309657
0.000303431
0.000309579
0.000301695
0.000308718
0.000301831
0.000306971
0.000303513
0.000305056
0.000305658
0.000306241
0.000306174
0.000309338
0.000305556
0.000312062
0.000306789
0.000309178
0.000308834
0.000308635
0.000307202
0.00031098
0.000303961
0.000310941
0.00030208
0.000309923
0.000302166
0.000307826
0.000303933
0.000305417
0.000306326
0.000306686
0.000306789
0.000310357
0.000305924
0.000313096
0.000307249
0.000309991
0.00030992
0.000309329
0.000308115
0.000312343
0.000304449
0.000312323
0.000302426
0.000311168
0.000302487
0.000308727
0.000304365
0.000305769
0.000307069
0.000307131
0.00030746
0.000311467
0.000306284
0.000314187
0.000307688
0.000310821
0.000311086
0.000309964
0.000309058
0.000313758
0.000304902
0.000313737
0.000302755
0.000312462
0.000302812
0.000309684
0.000304812
0.000306112
0.000307894
0.000307572
0.000308196
0.000312669
0.00030663
0.000315343
0.000308097
0.000311674
0.000312349
0.000310538
0.000310045
0.00031524
0.00030532
0.000315186
0.000303079
0.000313808
0.000303144
0.000310707
0.00030527
0.000306436
0.000308811
0.000308003
0.000309002
0.000313977
0.00030696
0.00031657
0.000308482
0.000312555
0.000313723
0.000311043
0.000311082
0.000316792
0.000305713
0.000316677
0.000303438
0.000315217
0.000303517
0.000311802
0.000305741
0.000306755
0.000309837
0.000308432
0.00030989
0.000315398
0.000307283
0.000317867
0.000308818
0.000313476
0.000315225
0.000311454
0.000312182
0.000318444
0.000306067
0.000318219
0.000303805
0.000316698
0.000303899
0.000312981
0.000306217
0.000307039
0.000310971
0.000308828
0.000310867
0.000316949
0.000307572
0.000319253
0.000309149
0.000314454
0.000316871
0.000311798
0.000313359
0.000320195
0.00030643
0.00031981
0.000304255
0.000318255
0.000304363
0.000314262
0.000306718
0.000307344
0.000312256
0.000309247
0.000311955
0.00031864
0.000307881
0.000320723
0.00030939
0.00031549
0.000318684
0.000312001
0.000314623
0.00032208
0.000306728
0.000321462
0.000304681
0.000319892
0.000304799
0.000315654
0.000307201
0.000307583
0.000313676
0.000309587
0.000313159
0.000320494
0.000308135
0.000322307
0.000309697
0.000316614
0.000320673
0.000312175
0.000315979
0.000324088
0.00030711
0.000323189
0.000305282
0.000321635
0.000305407
0.000317189
0.000307744
0.000307903
0.000315305
0.000310021
0.000314507
0.000322513
0.000308477
0.000323981
0.000309808
0.000317838
0.000322872
0.000312087
0.000317463
0.000326275
0.00030736
0.000324975
0.000305765
0.000323464
0.000305891
0.000318873
0.000308206
0.00030811
0.0003171
0.000310273
0.000316018
0.000324733
0.000308689
0.000325818
0.000310175
0.000319176
0.000325272
0.000312142
0.000319037
0.000328603
0.000307854
0.000326867
0.000306578
0.000325435
0.000306707
0.00032077
0.000308856
0.000308511
0.000319203
0.000310808
0.000317694
0.000327149
0.00030915
0.000327735
0.000310086
0.00032067
0.000327943
0.000311649
0.000320803
0.000331166
0.000308037
0.000328815
0.000307103
0.000327499
0.000307217
0.000322876
0.000309217
0.000308737
0.000321505
0.000310913
0.000319583
0.000329805
0.000309308
0.000329889
0.000310687
0.000322334
0.00033082
0.000311794
0.000322676
0.000333881
0.000308795
0.00033092
0.00030826
0.00032976
0.000308376
0.000325296
0.00031013
0.000309333
0.000324237
0.000311717
0.000321671
0.000332664
0.000310057
0.000332489
0.000314856
0.000324827
0.000334102
0.000315156
0.00032538
0.000336919
0.000313453
0.000333393
0.000315219
0.000332582
0.000315836
0.000328506
0.000315527
0.000314544
0.000327712
0.000315776
0.000324647
0.000335845
0.000314419
0.000414708
0.00150218
0.000431801
0.000343016
0.00149067
0.000430235
0.000345033
0.00140106
0.000404084
0.00151429
0.000408754
0.00165394
0.000413176
0.00183658
0.00129234
0.000417602
0.00134998
0.000433501
0.000345041
0.00134986
0.000455992
0.000450081
0.000445476
0.000442571
0.000441296
0.000441259
0.000442052
0.00044342
0.000445206
0.000446852
0.000447425
0.000447172
0.000447514
0.000449329
0.00045225
0.000454957
0.000456173
0.000455238
0.00045232
0.000449368
0.000424465
0.000416575
0.000410454
0.000406394
0.00040425
0.000403629
0.000404161
0.000405687
0.000408282
0.000411019
0.000412904
0.000415243
0.000419667
0.000426006
0.000432045
0.00043557
0.000435323
0.000431514
0.000425638
0.000420183
0.000389832
0.000381128
0.000375408
0.000372646
0.000371906
0.000372388
0.000373785
0.000376142
0.000380205
0.000384438
0.000387988
0.000392962
0.000399809
0.000407238
0.000411598
0.000410907
0.000405956
0.000399029
0.00039201
0.000386408
0.000363683
0.00035533
0.000350704
0.000349118
0.000349351
0.000350494
0.00035241
0.000355317
0.000361508
0.00036783
0.000373795
0.000382165
0.000390793
0.000396081
0.000394612
0.000388242
0.000380254
0.000372599
0.000365866
0.000360732
0.000345008
0.000337478
0.000333956
0.000333137
0.000333859
0.00033521
0.000337237
0.000340267
0.000349226
0.000357749
0.000366461
0.00037786
0.00038536
0.000384454
0.000376528
0.000367189
0.000358965
0.000352144
0.000346484
0.000342311
0.0003321
0.000325479
0.000322748
0.000322141
0.000322977
0.000324322
0.000326267
0.000329208
0.00034112
0.000351568
0.000361635
0.000374862
0.000378661
0.000370859
0.000359312
0.000349935
0.000342887
0.000337403
0.000332946
0.000329683
0.000323327
0.000317502
0.000315281
0.000314593
0.000315267
0.000316473
0.000318202
0.000320902
0.000335224
0.000347455
0.000354157
0.000366693
0.000367363
0.000356161
0.000344646
0.000336901
0.000331409
0.0003272
0.00032375
0.000321182
0.000317266
0.000312136
0.000310265
0.00030936
0.00030962
0.000310614
0.000312013
0.00031437
0.000330715
0.000345146
0.000352787
0.000367107
0.000359348
0.000343941
0.00033341
0.000327458
0.000323322
0.000320104
0.000317427
0.000315365
0.000313178
0.000308615
0.000306997
0.000305907
0.000305642
0.000306292
0.00030735
0.000309445
0.00032991
0.000347014
0.000352636
0.000361738
0.00034792
0.000333026
0.000325004
0.000320718
0.000317648
0.000315168
0.000313105
0.000311422
0.000310391
0.000306294
0.000304877
0.000303665
0.000303031
0.000303028
0.00030376
0.000305604
0.000330734
0.000349496
0.000352657
0.000358188
0.000338491
0.000324891
0.000319031
0.000315894
0.000313612
0.000311674
0.000310119
0.000308719
0.000308559
0.000304831
0.000303603
0.000302334
0.000301514
0.000300715
0.000300985
0.000302514
0.000328503
0.000348995
0.000352438
0.000356178
0.000330859
0.000318828
0.000314669
0.000312337
0.0003107
0.000309194
0.000308087
0.000306898
0.000307392
0.000303949
0.000302915
0.000301627
0.00030076
0.000299462
0.000299098
0.000300135
0.000324453
0.000347039
0.000356518
0.000355907
0.000324961
0.000314355
0.000311469
0.000309709
0.000308617
0.000307457
0.000306737
0.00030569
0.000306716
0.000303486
0.000302651
0.000301369
0.000300536
0.000299003
0.000298298
0.00029828
0.000324009
0.000349716
0.000352418
0.000358494
0.000320181
0.00031084
0.000309027
0.000307744
0.000307148
0.000306261
0.000305884
0.000304923
0.000306399
0.000303315
0.000302685
0.000301434
0.000300697
0.000299067
0.000298338
0.000297224
0.00032379
0.000352962
0.000357394
0.000360863
0.000316093
0.000308123
0.000307227
0.000306335
0.000306164
0.000305473
0.000305402
0.000304476
0.000306351
0.000303356
0.000302937
0.000301717
0.000301129
0.000299459
0.000298899
0.000297262
0.00032417
0.00035531
0.000357456
0.00036013
0.000312483
0.00030598
0.000305922
0.000305357
0.000305542
0.000304985
0.000305198
0.000304262
0.000306506
0.000303547
0.000303344
0.000302155
0.000301745
0.000300074
0.000299809
0.000297979
0.000323943
0.000367296
0.000371196
0.000343809
0.0003093
0.000304446
0.000305079
0.000304747
0.000305201
0.00030473
0.000305211
0.000304219
0.000306818
0.000303844
0.000303863
0.000302703
0.000302479
0.000300812
0.000300939
0.000298728
0.000304607
0.00034542
0.000360825
0.000314491
0.000305774
0.000303383
0.000304612
0.000304422
0.000305074
0.000304651
0.000305394
0.000304302
0.000307253
0.000304217
0.000304462
0.000303329
0.000303282
0.000301603
0.000302145
0.000299617
0.00030195
0.000303174
0.000317175
0.00030277
0.000304267
0.000302935
0.000304453
0.000304322
0.000305112
0.000304712
0.000305714
0.000304476
0.000307787
0.000304642
0.000305118
0.000304016
0.000304126
0.000302425
0.000303372
0.000300459
0.00030276
0.000299514
0.00030559
0.000300703
0.00030418
0.000302875
0.000304491
0.000304389
0.000305272
0.000304881
0.000306149
0.000304716
0.000308402
0.000305102
0.000305812
0.000304749
0.00030499
0.000303262
0.000304609
0.000301291
0.000304075
0.000299989
0.000304517
0.00030088
0.000304606
0.000303021
0.000304659
0.000304584
0.000305521
0.000305137
0.000306682
0.000305005
0.000309087
0.000305585
0.000306536
0.000305524
0.000305857
0.000304105
0.000305853
0.000302063
0.000305422
0.000300725
0.000305348
0.000301353
0.000305184
0.000303265
0.000304905
0.000304878
0.000305837
0.000305464
0.000307303
0.000305329
0.000309834
0.00030608
0.000307279
0.000306338
0.000306715
0.000304951
0.000307099
0.000302788
0.000306772
0.000301376
0.000306425
0.000301823
0.000305844
0.000303574
0.000305205
0.000305258
0.000306202
0.000305854
0.000308005
0.000305676
0.000310639
0.000306579
0.000308038
0.000307194
0.000307554
0.000305798
0.000308356
0.000303458
0.00030811
0.000301952
0.000307556
0.000302255
0.000306559
0.000303922
0.000305535
0.000305711
0.000306602
0.0003063
0.000308785
0.000306037
0.000311499
0.000307077
0.000308809
0.000308095
0.000308369
0.000306655
0.000309628
0.00030408
0.00030945
0.000302451
0.000308706
0.00030265
0.000307323
0.0003043
0.000305884
0.000306233
0.000307024
0.000306798
0.000309643
0.000306405
0.000312413
0.000307567
0.00030959
0.000309049
0.00030915
0.000307521
0.000310923
0.000304652
0.000310799
0.000302893
0.000309886
0.000303014
0.00030813
0.000304701
0.000306239
0.000306821
0.00030746
0.000307348
0.00031058
0.000306774
0.000313383
0.000308044
0.000310384
0.000310065
0.000309894
0.000308407
0.000312253
0.000305184
0.000312162
0.000303281
0.000311094
0.000303354
0.000308985
0.000305122
0.000306597
0.00030748
0.000307904
0.000307952
0.0003116
0.000307141
0.000314412
0.000308504
0.000311189
0.000311151
0.000310591
0.000309315
0.000313623
0.000305673
0.000313547
0.00030363
0.000312342
0.00030368
0.000309885
0.000305556
0.000306948
0.000308214
0.000308349
0.000308613
0.000312711
0.000307502
0.000315498
0.000308942
0.000312011
0.000312318
0.000311229
0.000310253
0.000315046
0.000306128
0.000314962
0.000303961
0.000313636
0.000304008
0.000310839
0.000306004
0.000307288
0.00030903
0.00030879
0.000309338
0.000313916
0.000307848
0.00031665
0.000309352
0.000312854
0.000313583
0.000311807
0.000311235
0.000316537
0.000306548
0.000316413
0.00030429
0.000314983
0.000304347
0.000311861
0.000306464
0.000307613
0.000309938
0.000309224
0.000310134
0.000315227
0.000308181
0.000317872
0.000309737
0.000313726
0.000314959
0.000312316
0.000312265
0.000318098
0.000306943
0.000317905
0.000304654
0.000316392
0.000304727
0.000312953
0.000306935
0.000307931
0.000310954
0.000309655
0.000311011
0.000316654
0.000308507
0.000319166
0.000310077
0.000314639
0.000316466
0.000312734
0.00031336
0.000319762
0.000307303
0.000319448
0.000305033
0.000317876
0.000305122
0.000314132
0.000307417
0.000308219
0.00031208
0.000310059
0.000311979
0.000318212
0.000308803
0.000320549
0.000310411
0.000315608
0.000318119
0.000313084
0.000314531
0.000321527
0.00030767
0.000321041
0.000305493
0.000319434
0.000305596
0.000315413
0.000307921
0.000308527
0.000313357
0.000310484
0.000313058
0.000319911
0.00030912
0.00032202
0.000310662
0.00031664
0.000319942
0.0003133
0.000315793
0.000323427
0.000307981
0.000322695
0.00030594
0.000321077
0.000306052
0.000316808
0.000308414
0.000308778
0.000314772
0.00031084
0.000314259
0.000321778
0.00030939
0.000323606
0.000310976
0.000317759
0.000321941
0.000313485
0.000317147
0.000325453
0.000308372
0.000324426
0.000306555
0.000322826
0.000306675
0.000318346
0.000308964
0.000309108
0.000316397
0.000311287
0.000315603
0.000323812
0.000309747
0.000325287
0.000311109
0.000318984
0.000324156
0.00031342
0.000318635
0.000327661
0.000308647
0.000326219
0.000307069
0.000324665
0.00030719
0.00032004
0.000309446
0.000309341
0.000318195
0.000311569
0.000317119
0.000326051
0.00030999
0.000327133
0.000311493
0.000320326
0.000326572
0.000313494
0.000320215
0.000330013
0.000309162
0.000328121
0.000307906
0.00032665
0.000308028
0.000321949
0.00031011
0.000309767
0.000320303
0.000312129
0.000318804
0.000328488
0.000310477
0.000329067
0.000311446
0.000321834
0.000329266
0.000313041
0.000321997
0.000332603
0.000309391
0.000330084
0.000308477
0.000328734
0.000308583
0.000324076
0.000310508
0.000310042
0.000322624
0.000312287
0.000320714
0.000331172
0.000310687
0.000331244
0.000312081
0.000323518
0.000332166
0.000313221
0.000323891
0.000335346
0.000310191
0.00033221
0.000309672
0.000331021
0.000309778
0.000326522
0.00031145
0.000310686
0.000325378
0.000313137
0.000322829
0.000334059
0.000311482
0.000333884
0.000316078
0.000326052
0.000335482
0.000316409
0.000326636
0.000338421
0.00031468
0.000334719
0.000316482
0.000333896
0.000317064
0.000329794
0.000316595
0.000315783
0.000328902
0.000317069
0.000325854
0.000337281
0.0003157
0.000417608
0.00143925
0.00043425
0.000344817
0.00142772
0.000432438
0.000346883
0.00134273
0.000406789
0.00144893
0.000411706
0.0015796
0.000416457
0.00175119
0.00124865
0.000419646
0.00129542
0.000435372
0.000346909
0.00129466
0.000467849
0.000461663
0.000456791
0.000453625
0.000452157
0.000452029
0.000452836
0.000454305
0.000456267
0.000458185
0.000459107
0.000459134
0.000459594
0.000461439
0.000464445
0.00046732
0.000468707
0.00046783
0.000464768
0.000461436
0.000433661
0.000425408
0.00041889
0.000414463
0.000412059
0.000411323
0.000411875
0.000413529
0.000416368
0.000419518
0.000421867
0.000424476
0.000429
0.000435525
0.00044193
0.000445893
0.000445921
0.00044204
0.000435745
0.00042967
0.000396228
0.000387175
0.000381084
0.00037806
0.000377222
0.000377729
0.000379249
0.000381811
0.000386245
0.000391107
0.000395193
0.000400343
0.00040727
0.000415018
0.000419828
0.00041935
0.000414196
0.000406761
0.000399138
0.00039295
0.000368215
0.000359569
0.000354661
0.00035293
0.000353173
0.000354417
0.000356505
0.000359656
0.000366387
0.000373617
0.000380123
0.0003886
0.000397428
0.000403105
0.000401743
0.000395011
0.000386421
0.000378153
0.000370887
0.000365293
0.000348412
0.000340642
0.000336929
0.000336042
0.000336825
0.000338295
0.000340498
0.000343768
0.000353485
0.000363198
0.000372388
0.000383975
0.000391831
0.000390986
0.000382531
0.000372437
0.000363557
0.000356224
0.000350167
0.000345668
0.00033481
0.000327985
0.00032512
0.00032449
0.000325401
0.000326864
0.000328976
0.000332142
0.000345022
0.000356878
0.000367239
0.000380757
0.00038489
0.000376609
0.000364128
0.000353963
0.000346386
0.000340529
0.000335795
0.000332305
0.000325613
0.000319609
0.000317289
0.000316605
0.000317349
0.000318662
0.000320538
0.000323439
0.000338858
0.000352659
0.000359314
0.000371957
0.00037284
0.000360866
0.000348422
0.000340062
0.0003342
0.000329732
0.00032609
0.00032336
0.000319274
0.000313981
0.000312032
0.000311134
0.000311461
0.000312549
0.000314074
0.000316603
0.00033411
0.000350295
0.000357783
0.000372442
0.000364395
0.000347815
0.000336438
0.000330041
0.00032565
0.000322252
0.00031944
0.000317257
0.000315003
0.000310292
0.000308608
0.000307521
0.000307311
0.000308047
0.00030921
0.000311454
0.000333312
0.000352396
0.000357672
0.000366859
0.000352217
0.000336144
0.000327495
0.000322913
0.00031967
0.000317062
0.000314902
0.000313128
0.000312091
0.000307857
0.000306382
0.000305166
0.000304562
0.000304644
0.000305465
0.000307435
0.000334225
0.000355106
0.000357781
0.000363151
0.000342146
0.000327469
0.000321163
0.000317825
0.000315423
0.000313393
0.000311768
0.000310298
0.000310174
0.000306319
0.000305039
0.00030376
0.000302952
0.000302217
0.000302563
0.000304197
0.000331834
0.000354537
0.000357521
0.000361043
0.000334016
0.00032103
0.00031655
0.000314082
0.000312361
0.000310789
0.000309634
0.000308391
0.000308948
0.000305386
0.000304304
0.000303003
0.000302137
0.000300864
0.000300559
0.000301699
0.000327481
0.00035239
0.000361934
0.000360849
0.00032776
0.000316295
0.000313168
0.000311316
0.000310169
0.000308963
0.000308212
0.000307123
0.000308231
0.000304887
0.000304009
0.000302714
0.000301875
0.000300348
0.000299661
0.000299738
0.000326969
0.000355154
0.000357334
0.000363485
0.000322701
0.000312583
0.000310589
0.000309249
0.00030862
0.000307704
0.000307308
0.000306315
0.000307885
0.000304693
0.000304022
0.000302758
0.000302014
0.00030038
0.000299652
0.000298595
0.000326678
0.00035851
0.000362789
0.000366044
0.000318388
0.000309714
0.000308684
0.000307763
0.000307577
0.000306869
0.000306789
0.000305837
0.000307815
0.000304717
0.00030426
0.000303029
0.000302434
0.000300755
0.000300189
0.000298574
0.000326989
0.000360768
0.000362658
0.000365235
0.000314556
0.00030745
0.0003073
0.000306728
0.000306912
0.000306347
0.000306558
0.000305602
0.000307954
0.000304897
0.000304658
0.000303461
0.000303044
0.000301363
0.000301091
0.000299274
0.000326638
0.000373425
0.000377626
0.000347971
0.000311109
0.000305821
0.0003064
0.000306079
0.000306542
0.000306066
0.000306552
0.000305544
0.000308254
0.000305187
0.000305171
0.000304005
0.000303776
0.000302099
0.000302222
0.000300021
0.000306147
0.00034933
0.000365954
0.000316889
0.000307189
0.000304672
0.000305896
0.000305726
0.000306394
0.000305969
0.00030672
0.000305615
0.00030868
0.000305555
0.000305765
0.00030463
0.000304581
0.000302889
0.00030343
0.000300907
0.000303275
0.000304672
0.000319023
0.000304153
0.000305483
0.000304184
0.000305717
0.000305609
0.000306418
0.000306015
0.000307031
0.00030578
0.000309207
0.000305976
0.000306417
0.000305315
0.000305426
0.000303712
0.000304661
0.000301745
0.000304041
0.000300767
0.000306808
0.000301893
0.000305358
0.000304116
0.000305746
0.000305663
0.000306567
0.000306172
0.000307458
0.000306015
0.000309816
0.000306434
0.000307108
0.000306049
0.000306293
0.00030455
0.000305903
0.000302578
0.000305344
0.000301229
0.000305683
0.000302069
0.000305791
0.000304264
0.000305909
0.000305849
0.00030681
0.000306419
0.000307986
0.000306301
0.000310495
0.000306916
0.000307828
0.000306824
0.000307163
0.000305394
0.000307152
0.000303352
0.000306688
0.000301973
0.000306528
0.000302562
0.000306378
0.000304511
0.000306152
0.000306136
0.000307122
0.000306738
0.000308604
0.000306621
0.000311238
0.000307411
0.000308568
0.000307638
0.000308024
0.00030624
0.000308405
0.000304081
0.000308039
0.000302635
0.00030762
0.000303051
0.000307046
0.000304824
0.00030645
0.000306508
0.000307484
0.00030712
0.000309304
0.000306967
0.000312038
0.000307911
0.000309322
0.000308494
0.000308866
0.000307086
0.000309667
0.000304755
0.000309379
0.00030322
0.000308763
0.000303497
0.000307767
0.000305176
0.000306779
0.000306955
0.000307882
0.000307558
0.000310083
0.000307327
0.000312894
0.000308408
0.000310088
0.000309396
0.000309685
0.000307941
0.000310946
0.00030538
0.000310722
0.000303727
0.000309921
0.000303904
0.000308534
0.000305558
0.000307127
0.000307471
0.000308304
0.000308048
0.000310941
0.000307696
0.000313803
0.000308899
0.000310864
0.000310351
0.00031047
0.000308806
0.000312248
0.000305956
0.000312073
0.000304175
0.000311106
0.000304277
0.000309343
0.000305963
0.000307481
0.000308052
0.000308739
0.00030859
0.000311878
0.000308065
0.000314769
0.000309377
0.000311651
0.000311366
0.000311218
0.000309688
0.000313585
0.000306492
0.000313439
0.000304569
0.000312317
0.000304624
0.000310198
0.000306386
0.000307837
0.000308703
0.000309183
0.000309185
0.0003129
0.000308433
0.000315793
0.000309838
0.000312449
0.000312454
0.00031192
0.000310592
0.000314963
0.000306984
0.000314825
0.000304922
0.000313567
0.000304956
0.000311097
0.000306823
0.000308187
0.000309429
0.000309629
0.000309836
0.000314013
0.000308796
0.000316875
0.000310278
0.000313263
0.000313622
0.000312563
0.000311525
0.000316394
0.000307442
0.000316242
0.000305258
0.000314862
0.000305291
0.00031205
0.000307274
0.000308527
0.000310237
0.000310073
0.000310551
0.000315221
0.000309146
0.000318022
0.00031069
0.000314098
0.000314889
0.000313147
0.0003125
0.000317894
0.000307867
0.000317694
0.000305592
0.000316209
0.000305639
0.00031307
0.000307738
0.000308852
0.000311136
0.00031051
0.000311337
0.000316537
0.000309483
0.00031924
0.000311078
0.000314961
0.000316269
0.000313662
0.000313524
0.000319466
0.000308266
0.000319186
0.000305965
0.000317619
0.000306027
0.000314161
0.000308213
0.000309171
0.000312143
0.000310946
0.000312204
0.000317969
0.000309815
0.000320531
0.000311422
0.000315865
0.00031778
0.000314089
0.000314613
0.000321141
0.000308632
0.00032073
0.000306355
0.000319104
0.000306434
0.000315339
0.0003087
0.000309463
0.00031326
0.000311358
0.000313162
0.000319535
0.00031012
0.00032191
0.000311761
0.000316826
0.000319439
0.000314449
0.000315779
0.000322919
0.000309006
0.000322324
0.000306827
0.000320664
0.000306921
0.00031662
0.00030921
0.000309776
0.000314528
0.000311792
0.000314232
0.000321243
0.000310446
0.000323381
0.000312022
0.00031785
0.00032127
0.000314679
0.000317036
0.000324835
0.000309329
0.00032398
0.000307292
0.00032231
0.000307396
0.000318016
0.000309713
0.000310036
0.000315938
0.000312163
0.000315427
0.000323121
0.000310734
0.000324969
0.000312347
0.000318964
0.000323281
0.000314879
0.000318387
0.000326879
0.000309733
0.000325714
0.000307926
0.000324065
0.000308037
0.000319559
0.000310273
0.00031038
0.000317558
0.000312627
0.000316768
0.00032517
0.000311108
0.000326655
0.000312499
0.000320188
0.00032551
0.000314837
0.000319877
0.000329109
0.000310031
0.000327513
0.000308466
0.000325913
0.000308578
0.000321259
0.000310773
0.000310634
0.000319357
0.000312936
0.000318285
0.000327427
0.00031138
0.000328511
0.000312906
0.000321533
0.000327944
0.000314935
0.000321461
0.000331484
0.000310571
0.000329424
0.00030933
0.000327911
0.000309443
0.00032318
0.000311457
0.000311086
0.000321469
0.000313527
0.000319977
0.000329887
0.000311899
0.00033046
0.000312896
0.00032305
0.000330658
0.000314521
0.000323254
0.000334102
0.000310842
0.0003314
0.000309939
0.000330013
0.000310036
0.000325325
0.000311887
0.000311402
0.000323804
0.000313733
0.000321902
0.000332598
0.000312156
0.000332659
0.000313573
0.000324755
0.000333581
0.000314745
0.000325168
0.000336874
0.000311691
0.000333548
0.000311177
0.000332326
0.000311274
0.000327799
0.000312866
0.000312098
0.00032658
0.000314636
0.000324045
0.000335516
0.000313004
0.000335333
0.00031739
0.00032732
0.000336929
0.000317753
0.000327945
0.000339986
0.000315999
0.000336087
0.000317813
0.000335251
0.000318361
0.000331126
0.000317756
0.000317064
0.000330145
0.000318433
0.000327108
0.000338775
0.000317068
0.000420343
0.00137643
0.000436437
0.00034671
0.00136487
0.000434375
0.000348813
0.00128465
0.000409332
0.00138387
0.000414473
0.00150558
0.000419521
0.00166612
0.00120481
0.000421559
0.00124118
0.000436996
0.000348853
0.00123968
0.000480402
0.000473877
0.000468702
0.00046525
0.000463566
0.000463327
0.00046414
0.000465712
0.000467863
0.000470077
0.00047139
0.000471757
0.000472391
0.000474286
0.000477367
0.000480394
0.000481944
0.000481132
0.000477931
0.000474211
0.000443268
0.000434594
0.000427644
0.000422826
0.00042014
0.000419275
0.000419844
0.000421634
0.000424735
0.000428333
0.000431201
0.000434134
0.000438779
0.000445466
0.000452217
0.000456628
0.000456964
0.000453038
0.00044632
0.000439592
0.000402803
0.000393373
0.00038689
0.000383589
0.000382645
0.000383177
0.000384826
0.000387606
0.000392434
0.000397978
0.000402665
0.000408014
0.000414988