/*--------------------------------*- C++ -*----------------------------------*\
| =========                 |                                                 |
| \\      /  F ield         | OpenFOAM: The Open Source CFD Toolbox           |
|  \\    /   O peration     | Version:  2.4.0                                 |
|   \\  /    A nd           | Web:      www.OpenFOAM.org                      |
|    \\/     M anipulation  |                                                 |
\*---------------------------------------------------------------------------*/
FoamFile
{
    version     2.0;
    format      ascii;
    class       volScalarField;
    location    "30";
    object      k;
}
// * * * * * * * * * * * * * * * * * * * * * * * * * * * * * * * * * * * * * //

dimensions      [0 2 -2 0 0 0 0];

internalField   nonuniform List<scalar> 
283312
(
0.000254756
0.000250671
0.000246921
0.000244011
0.00024207
0.000241003
0.000240696
0.000241062
0.00024203
0.000243576
0.000245685
0.000248181
0.00025063
0.000252312
0.000252987
0.000252978
0.00025299
0.000253498
0.000254113
0.000253988
0.000233288
0.000228251
0.000223621
0.0002197
0.000216564
0.000214473
0.000213524
0.000213638
0.000214748
0.000216881
0.00021982
0.000222701
0.000224561
0.00022534
0.000225971
0.000227913
0.00023137
0.000234696
0.000235795
0.000234139
0.000206838
0.000201634
0.000197061
0.000193671
0.000191752
0.00019103
0.000191305
0.000192433
0.000194641
0.000198266
0.000202163
0.000204274
0.000204097
0.000203864
0.000205883
0.000209716
0.000212894
0.000213521
0.00021159
0.000208187
0.000187541
0.000182903
0.000179254
0.000176945
0.000176194
0.000176441
0.000177449
0.000179173
0.000182696
0.000188417
0.000192689
0.000193065
0.000191659
0.000192768
0.000196043
0.000198521
0.000198517
0.000196303
0.000192803
0.00018888
0.000174969
0.000171285
0.000168656
0.000167204
0.000167104
0.000167719
0.000168927
0.000170784
0.000175925
0.00018387
0.000187396
0.000186501
0.000186181
0.000188553
0.000190102
0.000189182
0.000186463
0.000182882
0.000179123
0.000175679
0.00016708
0.000164175
0.000162239
0.000161154
0.000161237
0.00016194
0.00016316
0.000164984
0.000171771
0.00018116
0.000182169
0.000180224
0.000181962
0.00018441
0.000183551
0.000180336
0.000176531
0.000172888
0.000169735
0.000167156
0.000162264
0.000159892
0.000158398
0.000157456
0.00015749
0.000158118
0.000159218
0.00016087
0.000168929
0.000178888
0.000175916
0.00017118
0.000174549
0.000177426
0.000175871
0.000172367
0.000168922
0.000166015
0.000163722
0.000161897
0.000159204
0.000157195
0.000155998
0.000155106
0.000154908
0.000155384
0.000156304
0.000157742
0.000166957
0.000177448
0.000171636
0.000168721
0.000172726
0.000172929
0.000169838
0.000166376
0.000163634
0.000161501
0.000159893
0.000158573
0.000157294
0.000155542
0.000154561
0.000153734
0.000153309
0.000153502
0.000154197
0.000155438
0.000166773
0.000178209
0.000169571
0.000167204
0.000169971
0.000168198
0.000164863
0.000162053
0.000160087
0.000158569
0.000157454
0.000156469
0.000156087
0.000154516
0.000153697
0.000152946
0.000152416
0.000152187
0.000152621
0.000153658
0.000167128
0.000178425
0.00016772
0.000166875
0.000167539
0.000164257
0.000161226
0.0001591
0.000157739
0.000156643
0.000155878
0.000155119
0.000155365
0.000153924
0.000153238
0.000152561
0.000152067
0.000151417
0.000151479
0.000152247
0.000165806
0.000175761
0.000164834
0.000167877
0.000165974
0.000161376
0.000158684
0.000157072
0.000156159
0.000155362
0.000154871
0.000154272
0.000154961
0.000153613
0.000153036
0.00015242
0.000152017
0.000151211
0.000150845
0.000151203
0.000163581
0.000172212
0.00016638
0.000172086
0.000165435
0.000159366
0.000156915
0.000155667
0.000155101
0.000154522
0.000154252
0.000153763
0.000154778
0.000153498
0.000153018
0.000152448
0.000152152
0.000151373
0.000150865
0.000150516
0.000163165
0.000171575
0.000160786
0.000174703
0.000164654
0.000157761
0.000155624
0.000154679
0.000154404
0.00015399
0.000153903
0.000153486
0.000154749
0.000153515
0.000153123
0.00015259
0.000152404
0.000151683
0.000151305
0.000150438
0.000162943
0.000171061
0.000165232
0.000180528
0.000164297
0.000156578
0.000154718
0.000154012
0.000153981
0.000153681
0.000153746
0.000153372
0.000154828
0.000153627
0.000153315
0.00015281
0.000152732
0.00015205
0.000151881
0.000151029
0.000163581
0.000168433
0.000163975
0.000184503
0.000163516
0.000155625
0.000154095
0.00015359
0.000153761
0.000153534
0.000153727
0.000153374
0.000154984
0.000153805
0.000153564
0.000153082
0.00015311
0.000152452
0.000152506
0.000151764
0.000164494
0.000183042
0.00018289
0.000181951
0.000161738
0.000154775
0.000153706
0.000153367
0.000153696
0.000153505
0.00015381
0.00015346
0.000155196
0.000154029
0.000153852
0.000153391
0.000153516
0.000152868
0.000153134
0.000152405
0.000157287
0.000176006
0.000187539
0.00016944
0.000157558
0.000153614
0.000153435
0.000153291
0.000153746
0.000153564
0.000153968
0.000153608
0.000155448
0.000154287
0.000154165
0.000153722
0.000153935
0.000153278
0.000153721
0.000152928
0.000154768
0.000158267
0.000165335
0.00015687
0.000154112
0.000152931
0.000153403
0.000153347
0.000153882
0.000153685
0.000154182
0.0001538
0.000155728
0.000154567
0.000154491
0.000154069
0.000154359
0.000153681
0.000154269
0.000153355
0.000154449
0.000153975
0.000156142
0.000153117
0.000153273
0.000152925
0.000153562
0.000153489
0.000154074
0.00015385
0.000154438
0.000154026
0.00015603
0.000154863
0.000154825
0.000154426
0.000154782
0.000154076
0.000154793
0.000153756
0.000154724
0.000153535
0.000154324
0.000152784
0.000153477
0.000153182
0.000153802
0.000153681
0.000154302
0.000154045
0.000154727
0.000154275
0.000156346
0.000155169
0.00015516
0.000154792
0.000155201
0.000154463
0.000155303
0.000154135
0.000155123
0.000153749
0.000154399
0.000153128
0.000153878
0.000153492
0.000154064
0.000153898
0.000154551
0.000154261
0.000155041
0.000154541
0.000156674
0.000155481
0.000155493
0.000155165
0.000155615
0.000154842
0.000155805
0.000154506
0.000155557
0.00015405
0.000154799
0.000153534
0.000154287
0.000153808
0.000154328
0.00015413
0.000154812
0.00015449
0.000155376
0.00015482
0.000157009
0.000155794
0.000155821
0.000155545
0.000156021
0.000155213
0.000156302
0.000154867
0.000155999
0.000154362
0.000155239
0.000153917
0.000154674
0.000154117
0.000154585
0.000154369
0.000155078
0.000154727
0.000155728
0.000155105
0.000157351
0.000156106
0.00015614
0.000155931
0.000156419
0.000155578
0.0001568
0.000155219
0.000156448
0.000154671
0.000155672
0.000154269
0.000155041
0.000154417
0.000154831
0.000154614
0.000155343
0.000154969
0.000156097
0.000155395
0.000157696
0.000156413
0.000156448
0.000156324
0.000156805
0.000155936
0.000157298
0.000155561
0.000156899
0.000154971
0.000156096
0.000154595
0.000155391
0.00015471
0.000155062
0.00015486
0.000155605
0.000155212
0.000156481
0.000155686
0.000158045
0.000156712
0.000156745
0.000156725
0.000157179
0.000156288
0.000157802
0.000155894
0.00015735
0.000155257
0.00015651
0.000154895
0.000155728
0.000154994
0.000155276
0.000155108
0.00015586
0.000155456
0.000156881
0.000155975
0.000158399
0.000157001
0.000157028
0.000157139
0.000157538
0.000156631
0.000158312
0.000156213
0.000157798
0.000155526
0.000156916
0.000155169
0.000156052
0.000155266
0.000155469
0.000155357
0.000156105
0.000155699
0.000157299
0.000156262
0.000158754
0.000157275
0.000157298
0.000157565
0.000157879
0.000156965
0.00015883
0.00015652
0.000158246
0.000155777
0.000157317
0.00015542
0.000156367
0.000155527
0.000155641
0.000155607
0.000156338
0.000155942
0.000157736
0.000156542
0.000159114
0.000157532
0.000157554
0.000158009
0.000158201
0.000157293
0.000159364
0.000156811
0.000158692
0.000156
0.000157715
0.000155642
0.000156678
0.000155775
0.000155785
0.000155857
0.000156555
0.000156183
0.000158195
0.000156813
0.000159481
0.00015777
0.000157799
0.000158476
0.000158503
0.000157614
0.000159912
0.000157089
0.000159137
0.000156204
0.000158112
0.000155844
0.000156987
0.000156011
0.000155911
0.000156116
0.000156761
0.000156428
0.000158681
0.000157079
0.000159853
0.000157979
0.000158031
0.000158972
0.000158775
0.000157932
0.000160487
0.000157346
0.000159583
0.000156372
0.000158512
0.000156013
0.000157298
0.000156232
0.000156001
0.000156377
0.000156939
0.000156674
0.000159198
0.000157326
0.000160238
0.000158174
0.000158263
0.000159505
0.000159029
0.000158252
0.000161089
0.000157597
0.000160031
0.000156535
0.000158922
0.000156178
0.000157621
0.000156445
0.000156083
0.000156661
0.000157119
0.000156937
0.000159754
0.000157575
0.000160634
0.000158319
0.000158486
0.000160082
0.000159236
0.000158575
0.000161732
0.000157813
0.000160483
0.000156648
0.00015934
0.000156295
0.000157955
0.000156631
0.000156113
0.000156952
0.000157254
0.000157208
0.000160357
0.000157792
0.000161058
0.000158472
0.000158726
0.000160715
0.000159437
0.000158908
0.000162416
0.000158043
0.00016095
0.000156794
0.000159788
0.00015645
0.000158324
0.000156825
0.000156158
0.000157291
0.000157418
0.000157517
0.000161016
0.000158031
0.000161498
0.000158534
0.00015897
0.000161411
0.000159544
0.000159254
0.000163158
0.000158208
0.000161424
0.00015686
0.000160251
0.000156524
0.000158718
0.000156963
0.000156132
0.000157649
0.000157503
0.000157852
0.000161741
0.000158208
0.000161997
0.000158673
0.000159253
0.000162177
0.000159706
0.000159624
0.000163953
0.000158446
0.000161937
0.000157043
0.000160776
0.000156721
0.000159188
0.000157169
0.000156166
0.000158096
0.00015769
0.000158249
0.00016254
0.000158468
0.000162514
0.000158619
0.000159561
0.000163037
0.000159656
0.000160028
0.000164835
0.000158541
0.000162461
0.000157088
0.000161331
0.000156775
0.000159711
0.000157227
0.000156113
0.000158596
0.000157725
0.000158703
0.000163436
0.000158593
0.000163141
0.000158814
0.000159954
0.000163972
0.000159855
0.0001605
0.000165775
0.000158857
0.000163072
0.000157407
0.000162001
0.000157115
0.000160384
0.000157516
0.000156173
0.000159234
0.000158008
0.000159257
0.000164411
0.000158942
0.000164078
0.000159741
0.000160856
0.000165136
0.000160597
0.000161444
0.000166906
0.00015991
0.000163939
0.000158691
0.000163023
0.000158553
0.000161509
0.000158782
0.000157683
0.000160388
0.000159021
0.000160352
0.000165603
0.000159995
0.000204233
0.000368025
0.000213228
0.000174268
0.000362833
0.000212029
0.000174874
0.000342055
0.000198344
0.00036612
0.000202003
0.000393622
0.000207161
0.000429827
0.000374124
0.000208856
0.000332791
0.000210037
0.000174629
0.00033346
0.000258138
0.000254094
0.00025026
0.000247215
0.000245153
0.000243991
0.000243617
0.000243948
0.000244915
0.000246487
0.000248653
0.000251271
0.000253953
0.000255915
0.000256765
0.000256677
0.000256345
0.000256441
0.000256836
0.000256777
0.000235392
0.000230309
0.000225533
0.000221463
0.000218174
0.000215956
0.000214919
0.000214991
0.000216087
0.000218212
0.000221164
0.000224109
0.00022601
0.000226689
0.000226994
0.000228538
0.000231815
0.000235341
0.000236888
0.000235665
0.000207837
0.00020256
0.000197866
0.000194349
0.000192341
0.000191568
0.000191825
0.000192959
0.000195167
0.000198763
0.000202628
0.000204639
0.000204143
0.000203377
0.000204944
0.000208711
0.000212248
0.00021342
0.000211963
0.000208852
0.000188036
0.000183336
0.000179608
0.00017721
0.00017641
0.000176638
0.000177649
0.000179388
0.0001829
0.000188572
0.000192724
0.000192712
0.000190618
0.000191148
0.000194351
0.000197247
0.000197847
0.000196145
0.000192964
0.00018919
0.000175299
0.000171572
0.000168886
0.000167363
0.000167224
0.000167825
0.000169036
0.000170898
0.000176012
0.000183886
0.000187163
0.000185622
0.000184564
0.000186703
0.000188616
0.000188311
0.000186125
0.000182875
0.000179275
0.000175887
0.000167352
0.000164413
0.000162425
0.000161279
0.000161326
0.000162015
0.000163233
0.000165053
0.00017176
0.000181015
0.000181587
0.000178795
0.000180014
0.000182719
0.00018252
0.000179899
0.000176452
0.000172975
0.000169887
0.000167327
0.000162536
0.000160131
0.000158587
0.000157589
0.000157585
0.000158197
0.000159288
0.000160929
0.000168826
0.000178557
0.000174998
0.000169299
0.000172443
0.000175986
0.000175226
0.000172212
0.000168983
0.000166154
0.00016389
0.000162072
0.000159484
0.000157441
0.000156194
0.00015525
0.000155017
0.000155473
0.00015638
0.000157802
0.000166742
0.000176936
0.000170459
0.00016659
0.000170758
0.000171883
0.000169523
0.000166393
0.000163765
0.000161668
0.000160074
0.000158757
0.00015759
0.000155802
0.000154772
0.000153901
0.00015344
0.000153612
0.000154289
0.000155507
0.000166427
0.000177539
0.000168223
0.000165041
0.000168331
0.000167546
0.000164779
0.000162165
0.000160257
0.000158757
0.000157652
0.000156669
0.000156397
0.000154788
0.000153922
0.000153134
0.000152568
0.000152318
0.000152732
0.000153738
0.00016666
0.000177583
0.000166278
0.000164771
0.000166271
0.000163919
0.000161283
0.000159264
0.000157933
0.000156848
0.00015609
0.000155331
0.00015569
0.000154212
0.00015348
0.00015277
0.000152246
0.000151572
0.00015161
0.000152343
0.000165286
0.000174732
0.000163278
0.000165849
0.000165094
0.000161283
0.00015883
0.000157269
0.000156372
0.000155583
0.000155097
0.000154498
0.0001553
0.000153915
0.000153295
0.00015265
0.000152222
0.000151392
0.000150995
0.00015132
0.000163055
0.000170951
0.000164754
0.000170278
0.00016496
0.000159458
0.000157117
0.000155887
0.00015533
0.000154757
0.000154491
0.000154001
0.000155132
0.000153815
0.000153294
0.000152699
0.000152382
0.000151585
0.000151042
0.000150657
0.00016258
0.000170119
0.000158863
0.000172765
0.000164446
0.000157968
0.00015586
0.000154915
0.000154646
0.000154237
0.000154153
0.000153737
0.000155116
0.000153847
0.000153415
0.000152861
0.000152658
0.000151926
0.00015152
0.000150614
0.000162324
0.000169436
0.000163399
0.000178708
0.000164378
0.000156877
0.000154979
0.000154262
0.000154235
0.00015394
0.000154008
0.000153636
0.000155209
0.000153974
0.000153623
0.000153099
0.000153009
0.000152321
0.000152133
0.00015126
0.00016298
0.000166381
0.000161837
0.000182809
0.000163835
0.000155989
0.000154376
0.000153852
0.000154025
0.000153804
0.000154
0.000153651
0.000155378
0.000154167
0.000153888
0.00015339
0.000153409
0.000152751
0.000152792
0.000152049
0.00016404
0.000181144
0.000181177
0.000181075
0.000162216
0.000155168
0.000153998
0.000153642
0.000153972
0.000153788
0.000154094
0.00015375
0.000155603
0.000154405
0.00015419
0.000153716
0.000153835
0.000153191
0.00015345
0.000152742
0.000157493
0.000174998
0.000186371
0.000169701
0.000158033
0.000153963
0.000153722
0.000153575
0.000154034
0.000153858
0.000154263
0.000153911
0.000155868
0.000154677
0.000154517
0.000154063
0.000154272
0.000153624
0.000154062
0.000153301
0.000155138
0.000158665
0.000165218
0.000157234
0.000154446
0.000153239
0.000153692
0.000153642
0.000154182
0.000153992
0.000154489
0.000154117
0.000156161
0.000154972
0.000154858
0.000154425
0.000154712
0.000154046
0.00015463
0.000153752
0.00015485
0.000154473
0.000156433
0.000153502
0.000153584
0.000153239
0.000153865
0.000153799
0.000154386
0.000154169
0.000154756
0.000154356
0.000156475
0.000155282
0.000155205
0.000154797
0.000155151
0.000154457
0.000155171
0.00015417
0.000155132
0.000154017
0.000154714
0.000153183
0.000153802
0.000153514
0.000154121
0.000154003
0.000154626
0.000154376
0.000155056
0.000154619
0.000156803
0.000155602
0.000155553
0.000155176
0.000155585
0.00015486
0.000155694
0.000154566
0.000155535
0.000154222
0.000154801
0.000153537
0.000154218
0.000153841
0.000154397
0.000154232
0.000154886
0.000154603
0.00015538
0.000154899
0.000157142
0.000155927
0.000155898
0.000155562
0.000156014
0.000155253
0.000156208
0.000154951
0.000155972
0.000154521
0.000155201
0.000153952
0.000154639
0.000154171
0.000154674
0.000154474
0.000155158
0.000154842
0.000155725
0.000155191
0.000157489
0.000156253
0.000156237
0.000155953
0.000156433
0.000155637
0.000156717
0.000155324
0.000156419
0.000154836
0.000155642
0.000154344
0.000155037
0.000154492
0.000154942
0.000154723
0.000155434
0.000155089
0.000156088
0.00015549
0.000157841
0.000156578
0.000156566
0.00015635
0.000156844
0.000156014
0.000157225
0.00015569
0.000156873
0.00015515
0.000156075
0.000154705
0.000155413
0.000154804
0.000155199
0.000154975
0.000155709
0.00015534
0.000156465
0.000155793
0.000158197
0.000156897
0.000156884
0.000156752
0.000157243
0.000156383
0.000157734
0.000156045
0.00015733
0.000155457
0.000156502
0.000155039
0.00015577
0.000155105
0.000155438
0.000155228
0.000155979
0.000155591
0.000156858
0.000156096
0.000158555
0.000157207
0.00015719
0.000157162
0.000157629
0.000156744
0.000158247
0.00015639
0.000157786
0.00015575
0.000156918
0.000155347
0.000156113
0.000155396
0.000155659
0.00015548
0.000156242
0.000155841
0.000157265
0.000156398
0.000158917
0.000157506
0.00015748
0.000157583
0.000158
0.000157094
0.000158766
0.000156721
0.00015824
0.000156026
0.000157327
0.000155629
0.000156442
0.000155674
0.000155858
0.000155732
0.000156493
0.000156089
0.00015769
0.000156697
0.000159279
0.000157789
0.000157756
0.000158014
0.000158352
0.000157435
0.000159291
0.000157039
0.000158692
0.000156283
0.00015773
0.000155885
0.000156761
0.000155939
0.000156033
0.000155982
0.000156731
0.000156335
0.000158132
0.000156988
0.000159646
0.000158053
0.000158015
0.000158462
0.000158684
0.000157767
0.000159832
0.000157342
0.000159143
0.000156512
0.000158129
0.000156111
0.000157073
0.00015619
0.000156179
0.000156231
0.000156951
0.000156577
0.000158596
0.00015727
0.000160016
0.000158297
0.000158261
0.000158931
0.000158995
0.000158091
0.000160385
0.000157628
0.00015959
0.000156718
0.000158525
0.000156314
0.000157382
0.000156425
0.000156304
0.000156485
0.000157157
0.00015682
0.000159085
0.000157545
0.00016039
0.000158508
0.000158491
0.000159427
0.000159275
0.000158408
0.000160964
0.000157894
0.000160038
0.000156887
0.000158923
0.000156482
0.00015769
0.000156644
0.00015639
0.000156739
0.000157334
0.000157061
0.000159604
0.0001578
0.000160775
0.000158703
0.000158717
0.000159957
0.000159534
0.000158724
0.000161569
0.000158149
0.000160486
0.000157044
0.000159328
0.000156641
0.000158008
0.000156851
0.000156463
0.000157013
0.000157509
0.000157317
0.00016016
0.000158053
0.000161168
0.000158845
0.000158931
0.000160529
0.000159745
0.000159038
0.000162212
0.000158368
0.000160936
0.00015715
0.000159738
0.000156751
0.000158334
0.000157029
0.000156482
0.000157289
0.000157636
0.000157577
0.00016076
0.000158274
0.000161586
0.000158988
0.000159156
0.000161154
0.000159945
0.000159359
0.000162894
0.000158594
0.000161397
0.000157279
0.000160175
0.000156889
0.000158692
0.000157209
0.000156507
0.000157609
0.000157786
0.000157869
0.000161415
0.000158509
0.000162017
0.000159038
0.00015938
0.000161841
0.000160051
0.000159688
0.000163633
0.000158755
0.000161862
0.000157329
0.000160625
0.000156948
0.000159072
0.000157332
0.000156459
0.000157943
0.000157857
0.000158184
0.000162134
0.000158684
0.000162503
0.000159153
0.000159639
0.000162595
0.000160198
0.000160036
0.000164423
0.000158976
0.000162362
0.00015748
0.000161132
0.000157114
0.000159524
0.00015751
0.000156458
0.000158359
0.000158015
0.000158554
0.000162926
0.000158928
0.000163004
0.000159077
0.000159917
0.000163441
0.000160138
0.000160412
0.000165298
0.000159057
0.00016287
0.000157497
0.000161667
0.000157143
0.000160024
0.000157543
0.000156366
0.000158823
0.000158025
0.000158976
0.000163813
0.000159043
0.000163611
0.000159225
0.000160274
0.000164361
0.0001603
0.000160851
0.000166231
0.000159335
0.000163461
0.000157765
0.000162314
0.000157434
0.00016067
0.000157785
0.00015637
0.000159416
0.00015826
0.000159494
0.000164778
0.000159357
0.0001645
0.00015995
0.000161102
0.000165508
0.00016086
0.000161723
0.000167354
0.000160198
0.000164284
0.000158791
0.000163282
0.000158597
0.000161732
0.000158803
0.000157626
0.000160491
0.000159095
0.000160514
0.000165959
0.000160237
0.000202335
0.000341199
0.000210001
0.000174621
0.000336186
0.000208785
0.000175301
0.000318133
0.000196652
0.000338813
0.00020001
0.000361955
0.000204706
0.000392687
0.000349922
0.000206277
0.000310712
0.000206735
0.000174921
0.000310889
0.000261152
0.000257199
0.00025333
0.000250187
0.000248019
0.000246765
0.000246322
0.000246613
0.000247571
0.00024916
0.000251366
0.000254082
0.000256959
0.000259182
0.000260209
0.000260051
0.000259371
0.000259017
0.000259139
0.00025912
0.00023712
0.000232051
0.000227163
0.000222957
0.00021953
0.000217192
0.000216071
0.0002161
0.000217175
0.000219272
0.000222199
0.000225155
0.000227056
0.000227598
0.000227551
0.000228663
0.000231718
0.000235412
0.000237421
0.000236691
0.00020855
0.000203236
0.000198447
0.000194815
0.000192727
0.000191907
0.000192146
0.000193283
0.000195477
0.00019901
0.000202785
0.000204629
0.000203758
0.000202414
0.00020349
0.000207158
0.000211047
0.000212807
0.000211898
0.000209152
0.00018833
0.000183589
0.000179796
0.000177318
0.000176469
0.000176676
0.000177687
0.000179434
0.000182917
0.000188491
0.000192451
0.000191986
0.000189158
0.000189068
0.000192168
0.000195488
0.000196743
0.000195627
0.000192832
0.000189255
0.00017547
0.000171712
0.000168975
0.000167386
0.000167209
0.000167794
0.000169002
0.000170862
0.000175926
0.000183667
0.000186624
0.000184389
0.000182551
0.000184415
0.000186691
0.000187055
0.000185475
0.000182616
0.000179216
0.000175912
0.000167493
0.000164524
0.000162487
0.000161281
0.00016129
0.000161962
0.000163173
0.000164982
0.000171582
0.000180627
0.000180707
0.000177038
0.000177695
0.000180635
0.000181137
0.00017918
0.000176153
0.000172881
0.000169878
0.00016735
0.000162685
0.000160249
0.000158654
0.000157601
0.00015756
0.000158152
0.000159231
0.000160853
0.000168555
0.000177978
0.000173793
0.000167116
0.000169996
0.000174208
0.000174304
0.000171845
0.000168873
0.000166143
0.000163917
0.000162114
0.000159647
0.000157569
0.00015627
0.000155276
0.000155008
0.000155443
0.000156333
0.000157732
0.000166359
0.000176178
0.000169021
0.000164187
0.000168476
0.000170552
0.00016899
0.000166242
0.000163751
0.000161701
0.000160127
0.000158817
0.00015777
0.000155945
0.000154863
0.000153947
0.00015345
0.000153603
0.000154258
0.000155448
0.000165907
0.000176618
0.000166625
0.000162612
0.000166397
0.000166655
0.000164516
0.000162134
0.000160296
0.00015882
0.000157725
0.000156745
0.000156592
0.000154945
0.000154027
0.0001532
0.000152599
0.000152332
0.000152721
0.000153693
0.000166014
0.000176492
0.000164602
0.000162412
0.000164736
0.000163381
0.000161188
0.000159299
0.000158003
0.000156932
0.000156181
0.000155422
0.000155901
0.000154383
0.000153602
0.000152857
0.000152302
0.000151608
0.000151621
0.000152315
0.000164591
0.00017346
0.000161511
0.000163573
0.00016397
0.000161018
0.000158839
0.000157342
0.000156464
0.000155684
0.000155203
0.000154603
0.000155526
0.000154101
0.000153433
0.000152757
0.000152302
0.00015145
0.000151024
0.000151314
0.000162362
0.000169451
0.000162924
0.000168219
0.000164265
0.000159399
0.000157192
0.000155986
0.000155438
0.000154872
0.000154608
0.000154119
0.000155371
0.000154016
0.000153448
0.000152826
0.000152485
0.000151672
0.000151093
0.000150675
0.000161832
0.000168422
0.000156751
0.000170565
0.000164026
0.000158034
0.000155973
0.000155032
0.000154768
0.000154365
0.000154282
0.000153868
0.000155369
0.000154063
0.000153586
0.000153008
0.000152785
0.000152041
0.000151606
0.000150666
0.000161546
0.000167582
0.000161367
0.000176613
0.00016426
0.000157044
0.000155121
0.000154394
0.000154368
0.00015408
0.000154148
0.000153779
0.000155475
0.000154205
0.00015381
0.000153266
0.000153159
0.000152466
0.000152254
0.000151362
0.000162222
0.000164084
0.00015949
0.000180822
0.000163965
0.000156228
0.000154538
0.000153997
0.00015417
0.000153955
0.000154151
0.000153806
0.000155658
0.000154412
0.00015409
0.000153575
0.00015358
0.000152923
0.000152949
0.000152204
0.000163429
0.00017896
0.000179162
0.000179931
0.000162527
0.000155443
0.000154173
0.000153798
0.000154128
0.00015395
0.000154256
0.000153918
0.000155896
0.000154665
0.000154407
0.000153918
0.000154026
0.000153389
0.000153638
0.000152951
0.000157554
0.000173806
0.00018494
0.000169757
0.000158371
0.000154195
0.000153891
0.000153739
0.0001542
0.000154033
0.000154436
0.000154092
0.000156173
0.000154951
0.000154748
0.000154281
0.000154483
0.000153843
0.000154275
0.000153547
0.000155375
0.000158921
0.000164952
0.000157455
0.000154657
0.000153428
0.000153861
0.000153818
0.00015436
0.000154178
0.000154673
0.000154312
0.000156479
0.00015526
0.000155103
0.000154659
0.00015494
0.000154285
0.000154864
0.000154023
0.000155124
0.000154846
0.000156605
0.000153767
0.000153778
0.000153434
0.000154048
0.000153988
0.000154576
0.000154367
0.000154951
0.000154564
0.000156805
0.000155584
0.000155463
0.000155045
0.000155395
0.000154715
0.000155421
0.000154461
0.000155415
0.000154377
0.000154987
0.000153466
0.00015401
0.000153727
0.00015432
0.000154206
0.000154828
0.000154586
0.000155261
0.00015484
0.000157145
0.000155917
0.000155824
0.000155438
0.000155844
0.000155133
0.00015596
0.000154872
0.000155823
0.000154574
0.000155088
0.000153828
0.00015444
0.000154071
0.00015461
0.000154446
0.0001551
0.000154824
0.000155597
0.000155134
0.000157497
0.000156256
0.000156182
0.000155836
0.000156287
0.000155541
0.000156487
0.000155272
0.000156265
0.000154872
0.000155487
0.000154251
0.000154874
0.000154415
0.0001549
0.000154699
0.000155382
0.000155074
0.000155952
0.000155439
0.000157855
0.000156596
0.000156532
0.00015624
0.000156721
0.000155938
0.000157008
0.000155659
0.000156717
0.000155189
0.000155926
0.000154651
0.000155282
0.000154748
0.000155179
0.000154957
0.000155667
0.00015533
0.000156324
0.000155751
0.000158218
0.000156933
0.000156873
0.000156647
0.000157145
0.000156328
0.000157527
0.000156038
0.000157177
0.000155508
0.000156361
0.00015502
0.000155666
0.00015507
0.000155445
0.000155217
0.000155952
0.000155589
0.00015671
0.000156067
0.000158584
0.000157264
0.000157201
0.00015706
0.000157557
0.000156708
0.000158047
0.000156406
0.00015764
0.000155821
0.00015679
0.000155363
0.000156031
0.00015538
0.000155693
0.000155476
0.00015623
0.000155848
0.000157111
0.000156384
0.000158952
0.000157586
0.000157516
0.000157479
0.000157956
0.000157079
0.00015857
0.000156765
0.000158102
0.000156122
0.000157209
0.000155679
0.00015638
0.000155679
0.000155921
0.000155733
0.0001565
0.000156105
0.000157526
0.000156698
0.000159323
0.000157896
0.000157814
0.000157906
0.000158339
0.000157438
0.000159097
0.000157109
0.000158562
0.000156405
0.000157621
0.000155968
0.000156714
0.000155962
0.000156126
0.000155987
0.000156757
0.000156358
0.000157958
0.000157009
0.000159693
0.000158188
0.000158095
0.000158344
0.000158702
0.000157785
0.000159631
0.000157438
0.00015902
0.00015667
0.000158026
0.00015623
0.000157036
0.000156231
0.000156305
0.000156238
0.000157
0.000156607
0.000158406
0.000157311
0.000160066
0.000158459
0.000158359
0.000158795
0.000159045
0.000158123
0.000160179
0.000157752
0.000159476
0.000156904
0.000158426
0.00015646
0.000157351
0.000156485
0.000156453
0.000156486
0.000157223
0.00015685
0.000158874
0.000157604
0.000160441
0.000158709
0.000158606
0.000159266
0.000159366
0.000158449
0.000160738
0.000158048
0.000159927
0.000157113
0.000158822
0.000156665
0.000157659
0.00015672
0.000156576
0.000156736
0.00015743
0.000157092
0.000159366
0.000157888
0.000160819
0.000158924
0.000158834
0.000159762
0.000159654
0.000158765
0.000161321
0.000158322
0.000160378
0.000157283
0.000159218
0.000156832
0.000157965
0.000156936
0.000156659
0.000156982
0.000157606
0.000157328
0.000159887
0.000158152
0.000161204
0.000159119
0.000159055
0.00016029
0.000159919
0.000159078
0.000161929
0.000158582
0.000160826
0.000157436
0.000159618
0.000156986
0.000158279
0.000157138
0.000156724
0.000157245
0.000157775
0.000157576
0.000160442
0.00015841
0.000161595
0.000159258
0.000159259
0.000160857
0.000160134
0.000159384
0.000162572
0.000158806
0.000161273
0.000157536
0.000160021
0.000157089
0.000158597
0.000157307
0.000156731
0.000157507
0.000157895
0.000157824
0.00016104
0.000158634
0.000162008
0.000159392
0.00015947
0.000161474
0.000160333
0.000159693
0.000163253
0.000159029
0.000161729
0.00015765
0.000160447
0.000157212
0.000158944
0.000157474
0.000156737
0.000157807
0.00015803
0.0001581
0.000161692
0.000158868
0.000162429
0.00015943
0.000159674
0.00016215
0.000160436
0.000160004
0.000163988
0.000159186
0.000162186
0.000157684
0.000160883
0.000157255
0.000159309
0.00015758
0.000156665
0.000158116
0.000158085
0.000158392
0.000162404
0.000159039
0.000162901
0.000159521
0.000159907
0.000162891
0.00016057
0.000160329
0.000164773
0.000159391
0.000162673
0.000157804
0.000161372
0.000157392
0.000159741
0.000157731
0.000156629
0.0001585
0.000158214
0.000158735
0.000163187
0.00015927
0.000163384
0.000159421
0.000160151
0.000163722
0.000160498
0.000160674
0.00016564
0.000159457
0.000163163
0.000157791
0.000161884
0.000157394
0.000160216
0.000157738
0.000156495
0.000158925
0.000158198
0.000159122
0.000164063
0.000159372
0.000163969
0.000159522
0.000160471
0.000164626
0.000160625
0.00016108
0.000166565
0.000159698
0.000163732
0.000158008
0.000162504
0.000157635
0.000160831
0.000157932
0.000156441
0.000159471
0.000158383
0.000159601
0.000165016
0.000159653
0.000164807
0.000160059
0.000161217
0.000165753
0.000161017
0.000161874
0.000167677
0.000160385
0.000164507
0.000158799
0.000163414
0.000158548
0.000161827
0.000158725
0.000157449
0.000160459
0.000159049
0.000160539
0.000166183
0.000160373
0.000200214
0.000316668
0.000206555
0.000174793
0.000311853
0.000205342
0.000175557
0.00029627
0.000194741
0.000313915
0.000197775
0.000333227
0.000201987
0.000359128
0.000327199
0.000203438
0.000290433
0.000203241
0.000175029
0.000290219
0.00026368
0.000259879
0.000256041
0.000252853
0.00025061
0.000249281
0.000248776
0.000249028
0.000249975
0.000251573
0.00025381
0.000256603
0.000259648
0.000262103
0.00026329
0.000263054
0.000261996
0.000261136
0.000260917
0.000260896
0.000238398
0.000233413
0.000228463
0.000224149
0.000220606
0.000218163
0.000216967
0.000216954
0.000218004
0.000220056
0.000222921
0.000225833
0.000227676
0.000228034
0.000227594
0.000228231
0.000231013
0.000234838
0.000237315
0.000237136
0.000208951
0.000203643
0.000198788
0.000195059
0.000192904
0.000192043
0.000192266
0.000193404
0.000195576
0.000199016