/*--------------------------------*- C++ -*----------------------------------*\
| =========                 |                                                 |
| \\      /  F ield         | OpenFOAM: The Open Source CFD Toolbox           |
|  \\    /   O peration     | Version:  2.4.0                                 |
|   \\  /    A nd           | Web:      www.OpenFOAM.org                      |
|    \\/     M anipulation  |                                                 |
\*---------------------------------------------------------------------------*/
FoamFile
{
    version     2.0;
    format      ascii;
    class       volScalarField;
    location    "30";
    object      nut;
}
// * * * * * * * * * * * * * * * * * * * * * * * * * * * * * * * * * * * * * //

dimensions      [0 2 -1 0 0 0 0];

internalField   nonuniform List<scalar> 
283312
(
1.31306e-05
1.28782e-05
1.26217e-05
1.24026e-05
1.22378e-05
1.21294e-05
1.20772e-05
1.20787e-05
1.21308e-05
1.22475e-05
1.24535e-05
1.2722e-05
1.29664e-05
1.30865e-05
1.30712e-05
1.29943e-05
1.29637e-05
1.30438e-05
1.31891e-05
1.3254e-05
1.1783e-05
1.14895e-05
1.11864e-05
1.08983e-05
1.06404e-05
1.04498e-05
1.03442e-05
1.0319e-05
1.0365e-05
1.05105e-05
1.07583e-05
1.09847e-05
1.10504e-05
1.09628e-05
1.08757e-05
1.09821e-05
1.13303e-05
1.1761e-05
1.20275e-05
1.19998e-05
1.00371e-05
9.75154e-06
9.44954e-06
9.18985e-06
9.02463e-06
8.9458e-06
8.94053e-06
8.99356e-06
9.11004e-06
9.36148e-06
9.65482e-06
9.7342e-06
9.54991e-06
9.35858e-06
9.4516e-06
9.82793e-06
1.02486e-05
1.04786e-05
1.04623e-05
1.02633e-05
8.81174e-06
8.57396e-06
8.33887e-06
8.15959e-06
8.08536e-06
8.08363e-06
8.13528e-06
8.23097e-06
8.42178e-06
8.8222e-06
9.08915e-06
8.92405e-06
8.60212e-06
8.59222e-06
8.92215e-06
9.29312e-06
9.47683e-06
9.44519e-06
9.26859e-06
9.01266e-06
8.06499e-06
7.89744e-06
7.73417e-06
7.61902e-06
7.59476e-06
7.62231e-06
7.68962e-06
7.79433e-06
8.07343e-06
8.63341e-06
8.76177e-06
8.41692e-06
8.23022e-06
8.46268e-06
8.77435e-06
8.89652e-06
8.82801e-06
8.64669e-06
8.42262e-06
8.19407e-06
7.62682e-06
7.51016e-06
7.39371e-06
7.30877e-06
7.29894e-06
7.33464e-06
7.40459e-06
7.50802e-06
7.87349e-06
8.52648e-06
8.38429e-06
7.91915e-06
7.99754e-06
8.379e-06
8.5506e-06
8.45969e-06
8.26279e-06
8.04666e-06
7.85425e-06
7.68816e-06
7.38064e-06
7.29465e-06
7.20763e-06
7.13813e-06
7.12743e-06
7.15934e-06
7.2229e-06
7.3157e-06
7.74448e-06
8.41094e-06
7.97625e-06
7.29399e-06
7.57425e-06
8.0585e-06
8.16484e-06
8.01101e-06
7.81422e-06
7.63949e-06
7.50539e-06
7.39433e-06
7.23509e-06
7.16653e-06
7.09889e-06
7.03883e-06
7.01668e-06
7.03925e-06
7.09369e-06
7.17428e-06
7.66371e-06
8.33061e-06
7.61931e-06
7.07918e-06
7.57553e-06
7.91202e-06
7.8565e-06
7.66768e-06
7.50688e-06
7.38234e-06
7.29437e-06
7.21884e-06
7.15108e-06
7.09322e-06
7.03972e-06
6.98956e-06
6.95851e-06
6.96319e-06
7.0045e-06
7.07269e-06
7.66579e-06
8.36136e-06
7.44083e-06
7.05275e-06
7.56402e-06
7.71602e-06
7.58393e-06
7.41951e-06
7.30714e-06
7.22303e-06
7.16676e-06
7.11379e-06
7.10235e-06
7.05047e-06
7.00729e-06
6.96669e-06
6.93387e-06
6.91514e-06
6.94005e-06
6.99492e-06
7.68102e-06
8.32615e-06
7.28022e-06
7.09237e-06
7.54228e-06
7.53234e-06
7.38155e-06
7.25542e-06
7.18133e-06
7.12398e-06
7.08855e-06
7.05003e-06
7.07683e-06
7.02852e-06
6.99318e-06
6.96045e-06
6.93473e-06
6.89546e-06
6.89687e-06
6.93418e-06
7.60829e-06
8.08948e-06
7.03523e-06
7.21674e-06
7.56337e-06
7.40117e-06
7.24457e-06
7.14827e-06
7.10105e-06
7.06157e-06
7.04132e-06
7.01287e-06
7.06543e-06
7.01923e-06
6.98956e-06
6.96271e-06
6.94617e-06
6.9031e-06
6.87971e-06
6.89098e-06
7.49207e-06
7.80651e-06
7.09067e-06
7.59037e-06
7.64336e-06
7.31518e-06
7.15293e-06
7.07773e-06
7.0501e-06
7.02301e-06
7.01432e-06
6.99279e-06
7.06337e-06
7.01857e-06
6.99324e-06
6.97047e-06
6.96272e-06
6.92707e-06
6.89762e-06
6.86858e-06
7.4627e-06
7.69066e-06
6.6913e-06
7.76726e-06
7.67872e-06
7.24554e-06
7.08844e-06
7.03055e-06
7.01861e-06
7.00052e-06
7.00094e-06
6.98418e-06
7.06726e-06
7.02353e-06
7.00154e-06
6.9814e-06
6.98147e-06
6.95311e-06
6.93565e-06
6.88345e-06
7.44572e-06
7.57558e-06
6.97544e-06
8.24284e-06
7.73937e-06
7.19695e-06
7.04491e-06
7.00046e-06
7.00133e-06
6.98943e-06
6.99684e-06
6.98334e-06
7.07504e-06
7.03238e-06
7.01284e-06
6.99457e-06
7.00112e-06
6.97711e-06
6.97479e-06
6.9352e-06
7.49333e-06
7.29417e-06
6.8653e-06
8.62599e-06
7.74958e-06
7.15672e-06
7.01644e-06
6.98314e-06
6.99455e-06
6.98637e-06
6.99912e-06
6.98789e-06
7.08532e-06
7.04389e-06
7.02593e-06
7.00912e-06
7.0212e-06
6.9994e-06
7.01066e-06
6.98541e-06
7.5792e-06
8.34407e-06
8.24617e-06
8.76829e-06
7.65427e-06
7.11236e-06
6.99906e-06
6.97594e-06
6.99578e-06
6.98901e-06
7.00586e-06
6.99631e-06
7.09714e-06
7.05729e-06
7.04002e-06
7.02444e-06
7.04122e-06
7.02019e-06
7.04175e-06
7.02659e-06
7.34497e-06
8.16143e-06
8.895e-06
8.27523e-06
7.3392e-06
7.02881e-06
6.98428e-06
6.9758e-06
7.00274e-06
6.99563e-06
7.01568e-06
7.00757e-06
7.10981e-06
7.072e-06
7.05453e-06
7.04009e-06
7.06087e-06
7.03933e-06
7.06748e-06
7.05372e-06
7.16948e-06
7.47003e-06
7.80063e-06
7.34659e-06
7.05236e-06
6.97591e-06
6.98446e-06
6.98265e-06
7.01382e-06
7.00488e-06
7.02754e-06
7.02088e-06
7.12288e-06
7.08766e-06
7.06905e-06
7.05581e-06
7.07998e-06
7.05703e-06
7.08912e-06
7.07312e-06
7.11978e-06
7.15198e-06
7.20794e-06
7.04335e-06
6.97699e-06
6.9765e-06
6.99784e-06
6.99378e-06
7.02739e-06
7.01572e-06
7.04067e-06
7.03569e-06
7.13599e-06
7.10397e-06
7.08331e-06
7.07142e-06
7.09864e-06
7.07365e-06
7.1084e-06
7.09038e-06
7.11397e-06
7.09968e-06
7.06476e-06
7.00855e-06
6.98583e-06
6.99655e-06
7.01568e-06
7.00647e-06
7.04222e-06
7.02734e-06
7.05452e-06
7.05162e-06
7.14886e-06
7.12069e-06
7.09707e-06
7.08686e-06
7.11691e-06
7.0894e-06
7.12621e-06
7.1072e-06
7.11898e-06
7.10223e-06
7.05256e-06
7.0295e-06
7.00922e-06
7.01926e-06
7.03375e-06
7.01922e-06
7.05749e-06
7.03918e-06
7.06869e-06
7.06834e-06
7.16132e-06
7.13766e-06
7.11013e-06
7.10202e-06
7.13489e-06
7.10439e-06
7.14318e-06
7.12433e-06
7.12724e-06
7.11478e-06
7.06445e-06
7.05612e-06
7.03136e-06
7.04099e-06
7.05086e-06
7.0314e-06
7.07274e-06
7.05081e-06
7.08291e-06
7.08565e-06
7.17316e-06
7.1547e-06
7.12231e-06
7.11682e-06
7.15256e-06
7.11854e-06
7.1596e-06
7.14179e-06
7.13669e-06
7.13014e-06
7.07875e-06
7.08148e-06
7.05025e-06
7.06119e-06
7.06659e-06
7.04259e-06
7.08767e-06
7.06191e-06
7.09698e-06
7.10332e-06
7.18429e-06
7.17164e-06
7.13343e-06
7.13115e-06
7.17001e-06
7.132e-06
7.17567e-06
7.15962e-06
7.14669e-06
7.14699e-06
7.0918e-06
7.10481e-06
7.06612e-06
7.07997e-06
7.08093e-06
7.05266e-06
7.10211e-06
7.07221e-06
7.11076e-06
7.12122e-06
7.19454e-06
7.18832e-06
7.14334e-06
7.14493e-06
7.18723e-06
7.14454e-06
7.19135e-06
7.1777e-06
7.1567e-06
7.16436e-06
7.10339e-06
7.12638e-06
7.07941e-06
7.09746e-06
7.09369e-06
7.06134e-06
7.11586e-06
7.08147e-06
7.12414e-06
7.13919e-06
7.20385e-06
7.20461e-06
7.15189e-06
7.15809e-06
7.2042e-06
7.15598e-06
7.20669e-06
7.19587e-06
7.16636e-06
7.18162e-06
7.1133e-06
7.14611e-06
7.09036e-06
7.11367e-06
7.1049e-06
7.06853e-06
7.12886e-06
7.08954e-06
7.13708e-06
7.15717e-06
7.2122e-06
7.22032e-06
7.15895e-06
7.17065e-06
7.22094e-06
7.16611e-06
7.22168e-06
7.21379e-06
7.17535e-06
7.19824e-06
7.12166e-06
7.16385e-06
7.09912e-06
7.12851e-06
7.11436e-06
7.07404e-06
7.14092e-06
7.09619e-06
7.14961e-06
7.17502e-06
7.21946e-06
7.23525e-06
7.1644e-06
7.18257e-06
7.23732e-06
7.17475e-06
7.23626e-06
7.23137e-06
7.18356e-06
7.21365e-06
7.12851e-06
7.17935e-06
7.10585e-06
7.142e-06
7.12211e-06
7.0778e-06
7.15198e-06
7.10134e-06
7.16172e-06
7.19262e-06
7.22567e-06
7.24921e-06
7.16808e-06
7.19388e-06
7.25345e-06
7.18181e-06
7.25069e-06
7.2484e-06
7.19094e-06
7.22667e-06
7.13387e-06
7.19194e-06
7.11063e-06
7.1541e-06
7.1278e-06
7.07952e-06
7.1618e-06
7.10475e-06
7.1735e-06
7.20982e-06
7.23085e-06
7.26211e-06
7.17008e-06
7.20479e-06
7.26933e-06
7.18718e-06
7.26492e-06
7.26475e-06
7.19723e-06
7.237e-06
7.13779e-06
7.20182e-06
7.11365e-06
7.16471e-06
7.13188e-06
7.07954e-06
7.17064e-06
7.10664e-06
7.18508e-06
7.22671e-06
7.23496e-06
7.27339e-06
7.17008e-06
7.21542e-06
7.28471e-06
7.19077e-06
7.27929e-06
7.28013e-06
7.2026e-06
7.24382e-06
7.14041e-06
7.20829e-06
7.11495e-06
7.17383e-06
7.1335e-06
7.07731e-06
7.17775e-06
7.10658e-06
7.19664e-06
7.24267e-06
7.23833e-06
7.28359e-06
7.16876e-06
7.22616e-06
7.29998e-06
7.19286e-06
7.29392e-06
7.29471e-06
7.20709e-06
7.24817e-06
7.14228e-06
7.2126e-06
7.11508e-06
7.18166e-06
7.13395e-06
7.07385e-06
7.18448e-06
7.10559e-06
7.20854e-06
7.2583e-06
7.24077e-06
7.29124e-06
7.16539e-06
7.23715e-06
7.3142e-06
7.1932e-06
7.30919e-06
7.3076e-06
7.21062e-06
7.24847e-06
7.14315e-06
7.21305e-06
7.11372e-06
7.18743e-06
7.13112e-06
7.068e-06
7.18889e-06
7.10278e-06
7.221e-06
7.27225e-06
7.2433e-06
7.29815e-06
7.16157e-06
7.24925e-06
7.32865e-06
7.19245e-06
7.32546e-06
7.31979e-06
7.21388e-06
7.24769e-06
7.14439e-06
7.21294e-06
7.11241e-06
7.19257e-06
7.12781e-06
7.06188e-06
7.19383e-06
7.10011e-06
7.2349e-06
7.28623e-06
7.24528e-06
7.30118e-06
7.15592e-06
7.2624e-06
7.34057e-06
7.19006e-06
7.343e-06
7.32914e-06
7.21654e-06
7.2424e-06
7.14525e-06
7.20836e-06
7.11008e-06
7.19447e-06
7.12068e-06
7.05391e-06
7.19579e-06
7.09633e-06
7.2503e-06
7.29753e-06
7.24902e-06
7.30537e-06
7.15132e-06
7.27739e-06
7.35412e-06
7.18781e-06
7.36225e-06
7.3394e-06
7.22042e-06
7.24002e-06
7.14854e-06
7.20731e-06
7.11003e-06
7.19813e-06
7.11449e-06
7.04725e-06
7.20038e-06
7.09438e-06
7.26808e-06
7.31062e-06
7.25271e-06
7.30251e-06
7.14557e-06
7.29489e-06
7.36118e-06
7.1845e-06
7.38407e-06
7.34387e-06
7.22417e-06
7.23179e-06
7.15264e-06
7.20034e-06
7.11011e-06
7.19507e-06
7.10447e-06
7.0411e-06
7.20118e-06
7.09296e-06
7.28923e-06
7.3185e-06
7.2611e-06
7.30631e-06
7.14374e-06
7.3146e-06
7.37612e-06
7.18496e-06
7.40776e-06
7.355e-06
7.23232e-06
7.23392e-06
7.16273e-06
7.20439e-06
7.11683e-06
7.20028e-06
7.09629e-06
7.03801e-06
7.20839e-06
7.09621e-06
7.31305e-06
7.3329e-06
7.28725e-06
7.29395e-06
7.16915e-06
7.34593e-06
7.36532e-06
7.20937e-06
7.44149e-06
7.34213e-06
7.25522e-06
7.19009e-06
7.19188e-06
7.16355e-06
7.14647e-06
7.19133e-06
7.11427e-06
7.06472e-06
7.20729e-06
7.1282e-06
7.34917e-06
7.32732e-06
9.05215e-06
8.11476e-06
9.47651e-06
7.96823e-06
7.94831e-06
9.4043e-06
7.9769e-06
7.51586e-06
8.76215e-06
7.9667e-06
8.98457e-06
8.43105e-06
9.34814e-06
9.05361e-06
9.74757e-06
9.40101e-06
7.38343e-06
9.15894e-06
7.95439e-06
7.4138e-06
1.31519e-05
1.29105e-05
1.26532e-05
1.24282e-05
1.22571e-05
1.21422e-05
1.20833e-05
1.20787e-05
1.21258e-05
1.22368e-05
1.24368e-05
1.27072e-05
1.297e-05
1.3118e-05
1.31201e-05
1.3033e-05
1.29647e-05
1.30011e-05
1.31252e-05
1.32055e-05
1.17485e-05
1.14597e-05
1.11532e-05
1.08617e-05
1.05974e-05
1.0399e-05
1.02858e-05
1.0254e-05
1.02929e-05
1.04265e-05
1.06616e-05
1.08858e-05
1.09545e-05
1.08564e-05
1.07335e-05
1.0792e-05
1.11101e-05
1.15516e-05
1.18656e-05
1.18958e-05
9.9726e-06
9.68897e-06
9.38605e-06
9.12248e-06
8.95267e-06
8.86938e-06
8.85996e-06
8.90887e-06
9.01647e-06
9.24881e-06
9.5241e-06
9.59113e-06
9.38127e-06
9.14105e-06
9.18414e-06
9.54096e-06
9.98733e-06
1.02733e-05
1.03149e-05
1.01595e-05
8.74986e-06
8.51349e-06
8.27853e-06
8.09556e-06
8.01731e-06
8.01176e-06
8.05976e-06
8.15103e-06
8.32819e-06
8.70063e-06
8.94293e-06
8.74601e-06
8.36805e-06
8.3023e-06
8.61483e-06
9.01906e-06
9.26458e-06
9.29295e-06
9.15953e-06
8.93008e-06
8.0163e-06
7.85041e-06
7.68671e-06
7.56728e-06
7.53839e-06
7.56208e-06
7.62548e-06
7.72499e-06
7.98395e-06
8.50672e-06
8.60309e-06
8.20672e-06
7.95556e-06
8.16023e-06
8.50362e-06
8.69169e-06
8.68558e-06
8.5473e-06
8.3483e-06
8.13376e-06
7.58991e-06
7.47469e-06
7.35675e-06
7.26693e-06
7.25234e-06
7.28409e-06
7.34993e-06
7.44765e-06
7.78359e-06
8.38809e-06
8.20622e-06
7.6751e-06
7.70206e-06
8.10219e-06
8.34438e-06
8.32357e-06
8.17234e-06
7.98109e-06
7.80171e-06
7.64323e-06
7.35357e-06
7.26856e-06
7.17928e-06
7.10471e-06
7.08914e-06
7.11707e-06
7.17639e-06
7.26337e-06
7.65219e-06
8.25847e-06
7.78239e-06
7.03471e-06
7.28511e-06
7.82619e-06
8.01801e-06
7.92257e-06
7.75472e-06
7.59366e-06
7.46685e-06
7.36054e-06
7.21527e-06
7.14714e-06
7.07678e-06
7.01204e-06
6.98512e-06
7.00374e-06
7.05397e-06
7.12895e-06
7.56621e-06
8.16345e-06
7.4126e-06
6.80373e-06
7.30282e-06
7.73076e-06
7.75746e-06
7.6095e-06
7.46532e-06
7.3485e-06
7.2651e-06
7.19279e-06
7.13684e-06
7.07898e-06
7.02253e-06
6.96844e-06
6.93272e-06
6.93358e-06
6.9707e-06
7.03326e-06
7.55604e-06
8.1749e-06
7.22247e-06
6.77689e-06
7.32976e-06
7.58632e-06
7.51892e-06
7.37963e-06
7.27663e-06
7.19728e-06
7.14413e-06
7.09345e-06
7.09231e-06
7.04011e-06
6.9939e-06
6.95008e-06
6.9133e-06
6.89072e-06
6.91146e-06
6.9606e-06
7.55833e-06
8.1209e-06
7.05598e-06
6.82173e-06
7.35072e-06
7.44329e-06
7.33819e-06
7.22669e-06
7.1581e-06
7.10397e-06
7.07073e-06
7.03386e-06
7.07013e-06
7.02129e-06
6.98295e-06
6.94754e-06
6.91876e-06
6.87587e-06
6.87312e-06
6.90469e-06
7.48469e-06
7.87347e-06
6.80796e-06
6.95024e-06
7.41414e-06
7.34284e-06
7.21528e-06
7.12695e-06
7.08307e-06
7.04589e-06
7.02713e-06
6.99994e-06
7.06145e-06
7.0146e-06
6.98197e-06
6.95288e-06
6.93394e-06
6.88822e-06
6.8605e-06
6.86622e-06
7.37491e-06
7.57897e-06
6.85228e-06
7.33198e-06
7.53644e-06
7.27973e-06
7.13306e-06
7.06167e-06
7.03608e-06
7.01065e-06
7.00295e-06
6.98245e-06
7.06168e-06
7.01617e-06
6.98794e-06
6.96331e-06
6.95366e-06
6.91642e-06
6.88317e-06
6.84853e-06
7.34205e-06
7.44785e-06
6.44511e-06
7.49329e-06
7.6014e-06
7.2251e-06
7.07485e-06
7.01841e-06
7.00766e-06
6.9908e-06
6.99183e-06
6.97602e-06
7.06755e-06
7.02309e-06
6.99825e-06
6.97657e-06
6.97515e-06
6.94602e-06
6.92583e-06
6.86893e-06
7.32392e-06
7.32022e-06
6.72347e-06
7.96506e-06
7.69337e-06
7.18846e-06
7.03608e-06
6.99143e-06
6.99283e-06
6.9819e-06
6.98964e-06
6.97708e-06
7.0771e-06
7.03372e-06
7.01137e-06
6.99182e-06
6.99722e-06
6.97311e-06
6.96887e-06
6.92708e-06
7.37462e-06
7.01199e-06
6.59438e-06
8.35173e-06
7.73087e-06
7.15707e-06
7.01118e-06
6.9766e-06
6.98807e-06
6.98074e-06
6.99359e-06
6.98334e-06
7.08899e-06
7.04688e-06
7.02611e-06
7.00823e-06
7.01942e-06
6.9981e-06
7.00812e-06
6.98268e-06
7.47611e-06
8.04034e-06
7.95875e-06
8.58306e-06
7.6569e-06
7.11767e-06
6.9962e-06
6.97142e-06
6.99104e-06
6.98509e-06
7.00184e-06
6.99335e-06
7.1023e-06
7.06182e-06
7.04173e-06
7.02525e-06
7.04134e-06
7.02125e-06
7.04205e-06
7.02883e-06
7.32871e-06
7.97925e-06
8.66372e-06
8.24143e-06
7.35082e-06
7.03211e-06
6.98183e-06
6.97278e-06
6.99955e-06
6.99329e-06
7.01305e-06
7.00612e-06
7.11638e-06
7.07801e-06
7.05769e-06
7.04246e-06
7.06268e-06
7.04244e-06
7.07e-06
7.05934e-06
7.17366e-06
7.47329e-06
7.74564e-06
7.34893e-06
7.05575e-06
6.97639e-06
6.98271e-06
6.98118e-06
7.01209e-06
7.00404e-06
7.0262e-06
7.02088e-06
7.13079e-06
7.09509e-06
7.07359e-06
7.05963e-06
7.08334e-06
7.06194e-06
7.09339e-06
7.08106e-06
7.12794e-06
7.17014e-06
7.20713e-06
7.05236e-06
6.97922e-06
6.97776e-06
6.99759e-06
6.99387e-06
7.02704e-06
7.01628e-06
7.04055e-06
7.0371e-06
7.1452e-06
7.11277e-06
7.08918e-06
7.07659e-06
7.1034e-06
7.08014e-06
7.11407e-06
7.10001e-06
7.12304e-06
7.11658e-06
7.07437e-06
7.01894e-06
6.98918e-06
6.99948e-06
7.01702e-06
7.008e-06
7.04313e-06
7.02924e-06
7.05555e-06
7.0544e-06
7.15933e-06
7.13081e-06
7.10422e-06
7.0933e-06
7.12299e-06
7.09733e-06
7.13306e-06
7.11822e-06
7.12847e-06
7.11815e-06
7.06315e-06
7.04033e-06
7.01375e-06
7.02369e-06
7.0365e-06
7.02206e-06
7.05958e-06
7.04234e-06
7.0708e-06
7.07247e-06
7.17299e-06
7.14907e-06
7.11851e-06
7.10963e-06
7.14223e-06
7.11364e-06
7.15106e-06
7.13659e-06
7.13707e-06
7.13034e-06
7.07471e-06
7.06738e-06
7.0369e-06
7.04668e-06
7.05485e-06
7.03538e-06
7.07592e-06
7.05517e-06
7.08604e-06
7.0911e-06
7.186e-06
7.16736e-06
7.13188e-06
7.12553e-06
7.16111e-06
7.12903e-06
7.1684e-06
7.15522e-06
7.14689e-06
7.14575e-06
7.08874e-06
7.09326e-06
7.05664e-06
7.06796e-06
7.07168e-06
7.04759e-06
7.09183e-06
7.06738e-06
7.10105e-06
7.11005e-06
7.19824e-06
7.18549e-06
7.14412e-06
7.14087e-06
7.17972e-06
7.14364e-06
7.18533e-06
7.17421e-06
7.15731e-06
7.16292e-06
7.10174e-06
7.11719e-06
7.07327e-06
7.08765e-06
7.08698e-06
7.05856e-06
7.10717e-06
7.07871e-06
7.11569e-06
7.1292e-06
7.20955e-06
7.20329e-06
7.15507e-06
7.15554e-06
7.19805e-06
7.15724e-06
7.2018e-06
7.19342e-06
7.16778e-06
7.18079e-06
7.11345e-06
7.1394e-06
7.08724e-06
7.10593e-06
7.10059e-06
7.06801e-06
7.12174e-06
7.0889e-06
7.12987e-06
7.14838e-06
7.21983e-06
7.22063e-06
7.16459e-06
7.16948e-06
7.21609e-06
7.16964e-06
7.21786e-06
7.21271e-06
7.17792e-06
7.19865e-06
7.12355e-06
7.15975e-06
7.09877e-06
7.12279e-06
7.11251e-06
7.07582e-06
7.13544e-06
7.0978e-06
7.1435e-06
7.16752e-06
7.22907e-06
7.23729e-06
7.1725e-06
7.1827e-06
7.23385e-06
7.18063e-06
7.23349e-06
7.23171e-06
7.18738e-06
7.2159e-06
7.13212e-06
7.17804e-06
7.10801e-06
7.13814e-06
7.12254e-06
7.0818e-06
7.14808e-06
7.10514e-06
7.15662e-06
7.18647e-06
7.23712e-06
7.25304e-06
7.17865e-06
7.19511e-06
7.25117e-06
7.18998e-06
7.2486e-06
7.2503e-06
7.19604e-06
7.23184e-06
7.13915e-06
7.19395e-06
7.1151e-06
7.15197e-06
7.13065e-06
7.08584e-06
7.15956e-06
7.11082e-06
7.1692e-06
7.20506e-06
7.24398e-06
7.26767e-06
7.18286e-06
7.20675e-06
7.26814e-06
7.1976e-06
7.26346e-06
7.26826e-06
7.20379e-06
7.24523e-06
7.1446e-06
7.20674e-06
7.1201e-06
7.16424e-06
7.13652e-06
7.08765e-06
7.16961e-06
7.11457e-06
7.18132e-06
7.22316e-06
7.24966e-06
7.28103e-06
7.18516e-06
7.21778e-06
7.28475e-06
7.20329e-06
7.27798e-06
7.28539e-06
7.21036e-06
7.25562e-06
7.14847e-06
7.21653e-06
7.12315e-06
7.17479e-06
7.14047e-06
7.08751e-06
7.17845e-06
7.11656e-06
7.19309e-06
7.24078e-06
7.25406e-06
7.29253e-06
7.18518e-06
7.2283e-06
7.30069e-06
7.20694e-06
7.29246e-06
7.30137e-06
7.21588e-06
7.2622e-06
7.15086e-06
7.22264e-06
7.12427e-06
7.1836e-06
7.14169e-06
7.08486e-06
7.18529e-06
7.11632e-06
7.20466e-06
7.2573e-06
7.25749e-06
7.30259e-06
7.18357e-06
7.23868e-06
7.31628e-06
7.20879e-06
7.30704e-06
7.31625e-06
7.22034e-06
7.2658e-06
7.15226e-06
7.22614e-06
7.12398e-06
7.19081e-06
7.14126e-06
7.08064e-06
7.19138e-06
7.11486e-06
7.21639e-06
7.27317e-06
7.25971e-06
7.30976e-06
7.17947e-06
7.24903e-06
7.33057e-06
7.20848e-06
7.32202e-06
7.32917e-06
7.22361e-06
7.26501e-06
7.15242e-06
7.22547e-06
7.12193e-06
7.1956e-06
7.13714e-06
7.07365e-06
7.19479e-06
7.11112e-06
7.22841e-06
7.28706e-06
7.26166e-06
7.31553e-06
7.17449e-06
7.26022e-06
7.3446e-06
7.2067e-06
7.33781e-06
7.34078e-06
7.22632e-06
7.26233e-06
7.15263e-06
7.22351e-06
7.11959e-06
7.1993e-06
7.13183e-06
7.06593e-06
7.19811e-06
7.10711e-06
7.24169e-06
7.3004e-06
7.2627e-06
7.31702e-06
7.1671e-06
7.27216e-06
7.35581e-06
7.20268e-06
7.35458e-06
7.34916e-06
7.22808e-06
7.2548e-06
7.15211e-06
7.21682e-06
7.11585e-06
7.19929e-06
7.12209e-06
7.05584e-06
7.19806e-06
7.10138e-06
7.25616e-06
7.31072e-06
7.26507e-06
7.31853e-06
7.16028e-06
7.28577e-06
7.36763e-06
7.19837e-06
7.3729e-06
7.35734e-06
7.23067e-06
7.24897e-06
7.15363e-06
7.21247e-06
7.11391e-06
7.20015e-06
7.11221e-06
7.0464e-06
7.19949e-06
7.09698e-06
7.27283e-06
7.32177e-06
7.26694e-06
7.31262e-06
7.15151e-06
7.30158e-06
7.37273e-06
7.1922e-06
7.39356e-06
7.35934e-06
7.23267e-06
7.23709e-06
7.15552e-06
7.20215e-06
7.11158e-06
7.19395e-06
7.09753e-06
7.03675e-06
7.19685e-06
7.09232e-06
7.29262e-06
7.32735e-06
7.27307e-06
7.31133e-06
7.14613e-06
7.31954e-06
7.38347e-06
7.18938e-06
7.41606e-06
7.36604e-06
7.23865e-06
7.23369e-06
7.16305e-06
7.20091e-06
7.11537e-06
7.19424e-06
7.08321e-06
7.02939e-06
7.19861e-06
7.09182e-06
7.31501e-06
7.33757e-06
7.29421e-06
7.28474e-06
7.164e-06
7.34875e-06
7.36018e-06
7.20648e-06
7.44833e-06
7.33981e-06
7.25694e-06
7.17046e-06
7.18636e-06
7.13975e-06
7.13827e-06
7.16897e-06
7.08122e-06
7.04819e-06
7.1846e-06
7.11614e-06
7.34938e-06
7.31973e-06
8.823e-06
7.27983e-06
9.14001e-06
7.95878e-06
7.12457e-06
9.07231e-06
7.97316e-06
6.78378e-06
8.55604e-06
7.13039e-06
8.74496e-06
7.46454e-06
9.05595e-06
7.92505e-06
8.82561e-06
9.12564e-06
6.70731e-06
8.8351e-06
7.93797e-06
6.71891e-06
1.31197e-05
1.28961e-05
1.26444e-05
1.24187e-05
1.2244e-05
1.2124e-05
1.20589e-05
1.20484e-05
1.209e-05
1.21943e-05
1.23863e-05
1.26546e-05
1.293e-05
1.3102e-05
1.31206e-05
1.30241e-05
1.29177e-05
1.29066e-05
1.30039e-05
1.30958e-05
1.16689e-05
1.13921e-05
1.10871e-05
1.07944e-05
1.05262e-05
1.03216e-05
1.02016e-05
1.01635e-05
1.01949e-05
1.03147e-05
1.05329e-05
1.07486e-05
1.08156e-05
1.07045e-05
1.0545e-05
1.05537e-05
1.08369e-05
1.12833e-05
1.16425e-05
1.17347e-05
9.87911e-06
9.60146e-06
9.30058e-06
9.03495e-06
8.86197e-06
8.77492e-06
8.76151e-06
8.80603e-06
8.90373e-06
9.11379e-06
9.36495e-06
9.41332e-06
9.17465e-06
8.88496e-06
8.87681e-06
9.2102e-06
9.67824e-06
1.00202e-05
1.01245e-05
1.00191e-05
8.66922e-06
8.43634e-06
8.2033e-06
8.01783e-06
7.93581e-06
7.92649e-06
7.97055e-06
8.05685e-06
8.21888e-06
8.55845e-06
8.76915e-06
8.53652e-06
8.10275e-06
7.98109e-06
8.27286e-06
8.7071e-06
9.01533e-06
9.1082e-06
9.02318e-06
8.82463e-06
7.95343e-06
7.79012e-06
7.62691e-06
7.50392e-06
7.47061e-06
7.49027e-06
7.54939e-06
7.6431e-06
7.88008e-06
8.3591e-06
8.41745e-06
7.96912e-06
7.6544e-06
7.82844e-06
8.20019e-06
8.4553e-06
8.51606e-06
8.4255e-06
8.25507e-06
8.05698e-06
7.5411e-06
7.42761e-06
7.30863e-06
7.21448e-06
7.19515e-06
7.22276e-06
7.28409e-06
7.37554e-06
7.6796e-06
8.22789e-06
8.00285e-06
7.40844e-06
7.38343e-06
7.79747e-06
8.10964e-06
8.16325e-06
8.06233e-06
7.89917e-06
7.73472e-06
7.58506e-06
7.31533e-06
7.23129e-06
7.13988e-06
7.06062e-06
7.0404e-06
7.06421e-06
7.11894e-06
7.1996e-06
7.54586e-06
8.08392e-06
7.56544e-06
6.75747e-06
6.97584e-06
7.56891e-06
7.84791e-06
7.81551e-06
7.67989e-06
7.53431e-06
7.41568e-06
7.31469e-06
7.18459e-06
7.11673e-06
7.04359e-06
6.97438e-06
6.94302e-06
6.9577e-06
7.00344e-06
7.07237e-06
7.45492e-06
7.97466e-06
7.18628e-06
6.51419e-06
7.01045e-06
7.52672e-06
7.63939e-06
7.53627e-06
7.41072e-06
7.30253e-06
7.22406e-06
7.15522e-06
7.11173e-06
7.05364e-06
6.99405e-06
6.93603e-06
6.89598e-06
6.89329e-06
6.92603e-06
6.98261e-06
7.43228e-06
7.9668e-06
6.98616e-06
6.48703e-06
7.07491e-06
7.43624e-06
7.43795e-06
7.32666e-06
7.23409e-06
7.15993e-06
7.11001e-06
7.06172e-06
7.07135e-06
7.01855e-06
6.96907e-06
6.92189e-06
6.88129e-06
6.85537e-06
6.87191e-06
6.91506e-06
7.42153e-06
7.89463e-06
6.81548e-06
6.53723e-06
7.13855e-06
7.33632e-06
7.2809e-06
7.18588e-06
7.1233e-06
7.07257e-06
7.04151e-06
7.00632e-06
7.05239e-06
7.00274e-06
6.96111e-06
6.92277e-06
6.89091e-06
6.84489e-06
6.83821e-06
6.86394e-06
7.34742e-06
7.63804e-06
6.5667e-06
6.66975e-06
7.24446e-06
7.2685e-06
7.17324e-06
7.09397e-06
7.05366e-06
7.01883e-06
7.00151e-06
6.97555e-06
7.04629e-06
6.99851e-06
6.96263e-06
6.931e-06
6.90952e-06
6.86134e-06
6.82971e-06
6.8301e-06
7.2448e-06
7.33344e-06
6.6006e-06
7.05775e-06
7.40926e-06
7.2297e-06
7.10111e-06
7.03412e-06
7.01063e-06
6.98686e-06
6.98005e-06
6.96053e-06
7.04868e-06
7.0022e-06
6.97077e-06
6.94395e-06
6.9322e-06
6.8933e-06
6.85647e-06
6.81682e-06
7.20883e-06
7.18829e-06
6.18852e-06
7.20337e-06
7.50354e-06
7.19083e-06
7.04948e-06
6.99479e-06
6.98522e-06
6.96955e-06
6.9711e-06
6.95615e-06
7.05642e-06
7.01097e-06
6.983e-06
6.95943e-06
6.95631e-06
6.9262e-06
6.90332e-06
6.8421e-06
7.18979e-06
7.05013e-06
6.45981e-06
7.66928e-06
7.62688e-06
7.1668e-06
7.01564e-06
6.97087e-06
6.97276e-06
6.96273e-06
6.9707e-06
6.95898e-06
7.06764e-06
7.02328e-06
6.99785e-06
6.97667e-06
6.9807e-06
6.95625e-06
6.95003e-06
6.90592e-06
7.24316e-06
6.71653e-06
6.31269e-06
8.05702e-06
7.69217e-06
7.14478e-06
6.99442e-06
6.95845e-06
6.96991e-06
6.96334e-06
6.97622e-06
6.96683e-06
7.08105e-06
7.038e-06
7.01418e-06
6.99488e-06
7.00499e-06
6.98388e-06
6.99259e-06
6.96669e-06
7.35926e-06
7.71883e-06
7.65024e-06
8.37363e-06
7.64157e-06
7.11075e-06
6.98185e-06
6.9552e-06
6.97452e-06
6.96927e-06
6.98587e-06
6.97831e-06
7.09579e-06
7.05441e-06
7.03129e-06
7.01355e-06
7.02877e-06
7.00938e-06
7.02934e-06
7.01774e-06
7.29745e-06
7.78276e-06
8.41157e-06
8.18448e-06
7.34829e-06
7.02345e-06
6.96776e-06
6.95794e-06
6.98446e-06
6.97894e-06
6.99838e-06
6.99248e-06
7.11123e-06
7.07199e-06
7.04866e-06
7.03228e-06
7.05178e-06
7.03262e-06
7.05956e-06
7.05168e-06
7.16418e-06
7.4606e-06
7.67602e-06
7.33604e-06
7.04687e-06
6.96487e-06
6.96918e-06
6.96775e-06
6.99837e-06
6.99108e-06
7.01274e-06
7.00858e-06
7.12695e-06
7.09043e-06
7.06592e-06
7.05087e-06
7.07396e-06
7.05392e-06
7.08477e-06
7.07579e-06
7.12306e-06
7.17485e-06
7.19424e-06
7.04885e-06
6.96984e-06
6.967e-06
6.98546e-06
6.9819e-06
7.01459e-06
7.00465e-06
7.02824e-06
7.02612e-06
7.14263e-06
7.10941e-06
7.08282e-06
7.06916e-06
7.09543e-06
7.07372e-06
7.10691e-06
7.09647e-06
7.11935e-06
7.12047e-06
7.07228e-06
7.01713e-06
6.98095e-06
6.99026e-06
7.00637e-06
6.9974e-06
7.03187e-06
7.01886e-06
7.04432e-06
7.04469e-06
7.15799e-06
7.12873e-06
7.09912e-06
7.08711e-06
7.11634e-06
7.09236e-06
7.12713e-06
7.11611e-06
7.12536e-06
7.1211e-06
7.06199e-06
7.03882e-06
7.0066e-06
7.01585e-06
7.02717e-06
7.01267e-06
7.04941e-06
7.03315e-06
7.0606e-06
7.06401e-06
7.17286e-06
7.14822e-06
7.11464e-06
7.10461e-06
7.13683e-06
7.11002e-06
7.14622e-06
7.13573e-06
7.13444e-06
7.13292e-06
7.07316e-06
7.06613e-06
7.03063e-06
7.03999e-06
7.04668e-06
7.02709e-06
7.06675e-06
7.0471e-06
7.0768e-06
7.08388e-06
7.18704e-06
7.1677e-06
7.12919e-06
7.1216e-06
7.15691e-06
7.12665e-06
7.16455e-06
7.15554e-06
7.14473e-06
7.14834e-06
7.08688e-06
7.09239e-06
7.05117e-06
7.06223e-06
7.06454e-06
7.04026e-06
7.08358e-06
7.06037e-06
7.09272e-06
7.10403e-06
7.20041e-06
7.18698e-06
7.14257e-06
7.13794e-06
7.17667e-06
7.14244e-06
7.18239e-06
7.17567e-06
7.15566e-06
7.16579e-06
7.09983e-06
7.11678e-06
7.0685e-06
7.08277e-06
7.08076e-06
7.05209e-06
7.09976e-06
7.07269e-06
7.10821e-06
7.12435e-06
7.2128e-06
7.20588e-06
7.15459e-06
7.15351e-06
7.19611e-06
7.15713e-06
7.1997e-06
7.19601e-06
7.16668e-06
7.18411e-06
7.11165e-06
7.13953e-06
7.08311e-06
7.10176e-06
7.09518e-06
7.06228e-06
7.11508e-06
7.08379e-06
7.12315e-06
7.14467e-06
7.22411e-06
7.22423e-06
7.16509e-06
7.16825e-06
7.21521e-06
7.17055e-06
7.21652e-06
7.21641e-06
7.17739e-06
7.20251e-06
7.12197e-06
7.1604e-06
7.09522e-06
7.11919e-06
7.10777e-06
7.0707e-06
7.12944e-06
7.09349e-06
7.13747e-06
7.1649e-06
7.23429e-06
7.24181e-06
7.17389e-06
7.18215e-06
7.23398e-06
7.18243e-06
7.23284e-06
7.23647e-06
7.18741e-06
7.22033e-06
7.1308e-06
7.17918e-06
7.10496e-06
7.13499e-06
7.11833e-06
7.07715e-06
7.14261e-06
7.10151e-06
7.15118e-06
7.18488e-06
7.24318e-06
7.25836e-06
7.18079e-06
7.1951e-06
7.25223e-06
7.19256e-06
7.24854e-06
7.25606e-06
7.1966e-06
7.2368e-06
7.13806e-06
7.19544e-06
7.11243e-06
7.14913e-06
7.1268e-06
7.0815e-06
7.15447e-06
7.10773e-06
7.16425e-06
7.20442e-06
7.25077e-06
7.27364e-06
7.18558e-06
7.20709e-06
7.27003e-06
7.20079e-06
7.26389e-06
7.27494e-06
7.20483e-06
7.25055e-06
7.14367e-06
7.20842e-06
7.11768e-06
7.16154e-06
7.13283e-06
7.08341e-06
7.16471e-06
7.11183e-06
7.17671e-06
7.22337e-06
7.25702e-06
7.28745e-06
7.18824e-06
7.21829e-06
7.28734e-06
7.20688e-06
7.27876e-06
7.29283e-06
7.21178e-06
7.26102e-06
7.14756e-06
7.21812e-06
7.1208e-06
7.172e-06
7.13667e-06
7.08315e-06
7.17351e-06
7.11395e-06
7.1887e-06
7.24169e-06
7.26182e-06
7.29917e-06
7.18834e-06
7.22874e-06
7.30382e-06
7.21068e-06
7.29341e-06
7.30944e-06
7.21755e-06
7.26742e-06
7.14978e-06
7.22391e-06
7.12178e-06
7.18048e-06
7.13748e-06
7.08011e-06
7.18004e-06
7.11357e-06
7.20029e-06
7.25874e-06
7.26539e-06
7.3091e-06
7.18649e-06
7.23882e-06
7.31969e-06
7.21237e-06
7.30799e-06
7.32463e-06
7.22209e-06
7.27035e-06
7.15079e-06
7.22663e-06
7.12113e-06
7.18704e-06
7.13618e-06
7.07517e-06
7.18545e-06
7.11166e-06
7.21187e-06
7.27482e-06
7.26748e-06
7.3158e-06
7.18171e-06
7.24855e-06
7.33402e-06
7.21149e-06
7.32271e-06
7.3376e-06
7.2252e-06
7.26858e-06
7.15029e-06
7.22493e-06
7.11842e-06
7.19085e-06
7.13079e-06
7.06709e-06
7.18784e-06
7.10703e-06
7.22348e-06
7.28867e-06
7.26894e-06
7.32043e-06
7.17561e-06
7.25888e-06
7.34758e-06
7.20875e-06
7.33804e-06
7.34866e-06
7.22743e-06
7.26411e-06
7.1495e-06
7.22119e-06
7.11507e-06
7.19307e-06
7.12347e-06
7.05781e-06
7.18948e-06
7.10171e-06
7.23614e-06
7.30135e-06
7.26909e-06
7.32039e-06
7.16648e-06
7.26961e-06
7.35803e-06
7.20314e-06
7.35404e-06
7.35614e-06
7.22835e-06
7.2545e-06
7.14762e-06
7.21249e-06
7.10992e-06
7.19117e-06
7.11115e-06
7.04561e-06
7.18737e-06
7.09402e-06
7.24968e-06
7.31073e-06
7.27011e-06
7.31918e-06
7.15739e-06
7.2818e-06
7.36803e-06
7.19679e-06
7.37143e-06
7.36225e-06
7.22967e-06
7.24528e-06
7.14732e-06
7.20486e-06
7.10606e-06
7.18918e-06
7.09751e-06
7.03335e-06
7.18553e-06
7.08712e-06
7.26519e-06
7.31974e-06
7.27013e-06
7.31027e-06
7.14553e-06
7.29588e-06
7.37113e-06
7.18774e-06
7.39086e-06
7.36188e-06
7.22989e-06
7.22987e-06
7.14691e-06
7.19127e-06
7.10124e-06
7.17986e-06
7.07815e-06
7.02013e-06
7.17938e-06
7.07915e-06
7.28353e-06
7.32308e-06
7.27387e-06
7.30377e-06
7.1364e-06
7.31201e-06
7.37753e-06
7.1815e-06
7.41211e-06
7.36411e-06
7.23359e-06
7.22089e-06
7.15169e-06
7.18467e-06
7.10192e-06
7.17509e-06
7.05753e-06
7.00831e-06
7.17547e-06
7.07469e-06
7.30437e-06
7.32907e-06
7.2898e-06
7.26458e-06
7.14647e-06
7.33888e-06
7.34339e-06
7.1911e-06
7.4427e-06
7.32624e-06
7.24701e-06
7.14111e-06
7.1689e-06
7.10634e-06
7.11786e-06
7.13578e-06
7.03684e-06
7.01886e-06
7.14969e-06
7.09108e-06
7.33673e-06
7.30051e-06
8.58274e-06
6.55689e-06
8.79817e-06
7.93096e-06
6.41286e-06
8.73639e-06
7.95217e-06
6.1494e-06
8.33833e-06
6.40873e-06
8.49358e-06
6.63773e-06
8.75256e-06
6.96681e-06
7.99739e-06
8.83584e-06
6.11642e-06
8.50726e-06
7.90348e-06
6.11481e-06
1.30254e-05
1.28268e-05
1.25883e-05
1.23678e-05
1.21935e-05
1.20707e-05
1.20008e-05
1.19845e-05
1.20203e-05
1.21172e-05
1.22993e-05
1.25617e-05
1.28444e-05
1.3036e-05
1.30695e-05
1.29638e-05
1.28185e-05
1.27559e-05
1.28198e-05
1.29183e-05
1.15393e-05
1.12825e-05
1.09848e-05
1.06944e-05
1.04252e-05
1.02166e-05
1.00912e-05
1.00472e-05
1.00705e-05
1.01749e-05
1.0372e-05
1.05729e-05
1.06324e-05
1.05058e-05
1.0309e-05
1.02666e-05
1.05108e-05
1.09558e-05
1.13565e-05
1.1513e-05
9.75528e-06
9.48805e-06
9.19252e-06
8.92702e-06
8.75241e-06
8.66247e-06
8.64534e-06
8.68527e-06
8.77214e-06
8.9569e-06
9.17819e-06
9.20182e-06