/*--------------------------------*- C++ -*----------------------------------*\
| =========                 |                                                 |
| \\      /  F ield         | OpenFOAM: The Open Source CFD Toolbox           |
|  \\    /   O peration     | Version:  2.4.0                                 |
|   \\  /    A nd           | Web:      www.OpenFOAM.org                      |
|    \\/     M anipulation  |                                                 |
\*---------------------------------------------------------------------------*/
FoamFile
{
    version     2.0;
    format      ascii;
    class       volScalarField;
    location    "250";
    object      p;
}
// * * * * * * * * * * * * * * * * * * * * * * * * * * * * * * * * * * * * * //

dimensions      [0 2 -2 0 0 0 0];

internalField   nonuniform List<scalar> 
283312
(
-0.00622619
-0.00628742
-0.00652833
-0.00686859
-0.00721996
-0.00751272
-0.00773893
-0.0078947
-0.00801321
-0.0081188
-0.00823228
-0.00834088
-0.00841263
-0.00839251
-0.00824498
-0.00797706
-0.00760175
-0.0071541
-0.00671388
-0.00637826
0.00213484
0.00163374
0.00121004
0.00094397
0.000847592
0.000915329
0.00106044
0.00120295
0.00131476
0.0014041
0.00147377
0.00155546
0.00168605
0.00188789
0.00217128
0.00253473
0.00284475
0.00298954
0.00290762
0.00259932
-0.0023376
-0.00217644
-0.00194294
-0.00169426
-0.0014953
-0.00139339
-0.0013725
-0.00137687
-0.00142432
-0.00146414
-0.00149216
-0.00146913
-0.00139842
-0.00130385
-0.00126636
-0.00138548
-0.001641
-0.00194677
-0.00221428
-0.00235563
0.00145605
0.00163467
0.00178277
0.0019006
0.00198523
0.00205544
0.00206284
0.00206975
0.00203702
0.00204911
0.00206869
0.00211674
0.00214083
0.0020902
0.0019524
0.00170333
0.00144972
0.00126769
0.00121853
0.00129992
-0.000755213
-0.000553491
-0.000434279
-0.000353923
-0.000349111
-0.000335502
-0.000346474
-0.000332188
-0.000361255
-0.000336302
-0.000341994
-0.000398357
-0.000584982
-0.000917296
-0.00135326
-0.00169629
-0.00178408
-0.00163713
-0.0013464
-0.00102541
0.0011911
0.001302
0.00136078
0.0014071
0.00142149
0.00142928
0.0013951
0.00138218
0.00131828
0.00132947
0.0012777
0.0011534
0.0008665
0.00049273
0.000218069
0.000148577
0.000283936
0.000534351
0.000805149
0.00103221
-0.000154892
-0.000114124
-0.000106262
-9.95132e-05
-0.000110406
-8.50783e-05
-8.53984e-05
-5.69287e-05
-8.7937e-05
-6.1739e-05
-0.000170722
-0.00043703
-0.000859343
-0.00128005
-0.00142092
-0.00126881
-0.00095251
-0.000635942
-0.000390831
-0.000235787
0.000756163
0.000805594
0.000829383
0.000854542
0.000843284
0.000839926
0.000802655
0.000782286
0.000714096
0.000704999
0.000552426
0.000246115
-0.000156719
-0.000356879
-0.000314647
-8.83245e-05
0.000195371
0.00042301
0.000586185
0.000690555
-2.56699e-06
-1.60915e-07
-1.05182e-05
-1.16794e-05
-1.29502e-05
8.9776e-06
1.08041e-05
3.04352e-05
2.92185e-06
6.97851e-06
-0.000183266
-0.000584244
-0.00098377
-0.00107168
-0.00086616
-0.000581084
-0.000318845
-0.00015485
-5.83739e-05
-1.5499e-05
0.000437759
0.000462424
0.000473276
0.000483957
0.000471351
0.000463101
0.000432944
0.000410608
0.000357859
0.000341169
0.000163812
-0.000202269
-0.000452064
-0.000440294
-0.000213309
8.34396e-06
0.0001911
0.000295878
0.000366524
0.000408272
4.28501e-05
4.11804e-05
3.2593e-05
3.46678e-05
3.40159e-05
4.90657e-05
4.94199e-05
6.55147e-05
4.85047e-05
7.33345e-05
-0.000101658
-0.00052826
-0.000708056
-0.000627519
-0.000387836
-0.000205291
-6.87098e-05
-6.11381e-06
3.07918e-05
4.17232e-05
0.000249158
0.000260921
0.00026473
0.000267982
0.000256938
0.000248247
0.000224856
0.000207194
0.000172221
0.000191097
5.58149e-05
-0.000224221
-0.000328276
-0.000222983
-4.43792e-05
6.86039e-05
0.000153405
0.000189499
0.000219462
0.000235353
5.4548e-05
5.46952e-05
5.03522e-05
5.39337e-05
5.28145e-05
6.41251e-05
6.37995e-05
8.72778e-05
8.3957e-05
0.000190169
7.67458e-05
-0.000269378
-0.000352974
-0.00028809
-0.000143948
-6.31455e-05
4.18815e-06
2.80205e-05
4.79226e-05
5.26107e-05
0.000144751
0.000149922
0.000150107
0.000150461
0.000140751
0.000133005
0.000114002
0.000101775
8.14133e-05
0.00013842
9.81553e-05
-5.02182e-05
-0.000107176
-5.21865e-05
3.4139e-05
7.06381e-05
0.000107858
0.000117478
0.000132267
0.000138006
5.26857e-05
5.44965e-05
5.30871e-05
5.67371e-05
5.55919e-05
6.4654e-05
6.50098e-05
9.35867e-05
0.000105615
0.000280487
0.0002677
-4.98333e-05
-0.000136259
-0.000138885
-7.45943e-05
-3.45619e-05
1.10932e-05
2.67302e-05
4.38003e-05
4.87167e-05
8.87823e-05
9.09839e-05
8.97567e-05
8.90101e-05
8.07073e-05
7.3868e-05
5.76122e-05
4.69872e-05
2.92016e-05
8.62226e-05
0.000196502
3.79085e-05
-1.8631e-05
-1.88715e-05
2.17791e-05
3.50792e-05
6.34205e-05
7.01251e-05
8.17393e-05
8.47604e-05
4.63213e-05
4.85691e-05
4.85029e-05
5.14105e-05
5.03559e-05
5.64315e-05
5.63004e-05
7.27725e-05
6.90071e-05
0.00010778
6.74471e-05
-2.99223e-05
-3.93266e-05
-5.41537e-05
-2.04038e-05
-1.15932e-05
1.48943e-05
2.35417e-05
3.72195e-05
4.17762e-05
5.94876e-05
6.0239e-05
5.87247e-05
5.76654e-05
5.09675e-05
4.51376e-05
3.24183e-05
2.20414e-05
1.01186e-05
9.48407e-06
4.13778e-05
1.05704e-05
1.95733e-05
1.71245e-05
3.67761e-05
3.54767e-05
4.92904e-05
4.93341e-05
5.62545e-05
5.71332e-05
3.96398e-05
4.14936e-05
4.17909e-05
4.36962e-05
4.26299e-05
4.61379e-05
4.61438e-05
5.42897e-05
5.19648e-05
5.878e-05
3.43221e-05
-1.475e-05
-1.61199e-05
-2.98832e-05
-7.88992e-06
-4.19203e-06
1.48127e-05
2.08124e-05
3.17047e-05
3.5448e-05
4.38726e-05
4.39803e-05
4.26778e-05
4.16162e-05
3.64907e-05
3.18112e-05
2.23708e-05
1.35169e-05
4.80529e-06
-1.96884e-06
1.2089e-05
7.03434e-06
2.33202e-05
2.10567e-05
3.45845e-05
3.0635e-05
3.91555e-05
3.76313e-05
4.2236e-05
4.23082e-05
3.42376e-05
3.53592e-05
3.56142e-05
3.66079e-05
3.53233e-05
3.69902e-05
3.68082e-05
4.0153e-05
3.95139e-05
3.83546e-05
2.59796e-05
-4.62564e-06
-5.62468e-06
-1.65952e-05
-1.51317e-06
7.97168e-07
1.49748e-05
1.94919e-05
2.79703e-05
3.06774e-05
3.51973e-05
3.49843e-05
3.4082e-05
3.31331e-05
2.93356e-05
2.58273e-05
1.9091e-05
1.20478e-05
6.21767e-06
-4.54426e-07
7.2843e-06
7.50273e-06
2.23092e-05
2.02189e-05
3.0202e-05
2.64386e-05
3.22953e-05
3.08108e-05
3.41659e-05
3.40075e-05
3.04034e-05
3.07109e-05
3.09083e-05
3.11561e-05
2.97011e-05
3.00966e-05
2.94902e-05
3.00198e-05
3.04424e-05
2.66179e-05
2.15387e-05
1.29576e-06
1.55064e-06
-6.47305e-06
4.28449e-06
5.78715e-06
1.61091e-05
1.94642e-05
2.57833e-05
2.75157e-05
3.03058e-05
2.969e-05
2.92399e-05
2.83432e-05
2.54085e-05
2.28556e-05
1.86679e-05
1.28225e-05
9.65503e-06
3.65652e-06
8.91964e-06
8.69117e-06
2.04269e-05
1.80231e-05
2.59096e-05
2.32168e-05
2.7507e-05
2.66791e-05
2.93135e-05
2.89935e-05
2.78964e-05
2.73838e-05
2.76901e-05
2.74557e-05
2.57656e-05
2.54643e-05
2.45147e-05
2.32067e-05
2.42734e-05
1.96537e-05
1.8617e-05
5.16055e-06
7.15577e-06
1.39567e-06
9.35191e-06
1.03849e-05
1.75217e-05
2.00706e-05
2.46478e-05
2.54563e-05
2.7456e-05
2.63498e-05
2.63624e-05
2.53778e-05
2.30069e-05
2.14453e-05
1.86072e-05
1.38286e-05
1.31609e-05
7.0064e-06
1.19422e-05
9.42285e-06
1.87681e-05
1.62477e-05
2.23842e-05
2.0974e-05
2.42227e-05
2.4207e-05
2.62665e-05
2.58077e-05
2.61519e-05
2.51794e-05
2.57539e-05
2.49075e-05
2.33291e-05
2.26481e-05
2.17792e-05
1.89882e-05
2.0596e-05
1.55906e-05
1.72991e-05
7.96012e-06
1.14802e-05
6.76397e-06
1.32307e-05
1.39342e-05
1.88239e-05
2.09145e-05
2.39002e-05
2.42332e-05
2.58489e-05
2.38136e-05
2.46307e-05
2.35568e-05
2.12893e-05
2.03667e-05
1.8557e-05
1.42443e-05
1.5471e-05
9.21047e-06
1.42913e-05
1.00301e-05
1.78804e-05
1.49697e-05
2.01855e-05
1.97687e-05
2.18256e-05
2.28216e-05
2.44621e-05
2.36596e-05
2.55196e-05
2.35552e-05
2.46881e-05
2.32509e-05
2.14426e-05
2.14881e-05
2.00973e-05
1.6522e-05
1.95115e-05
1.30586e-05
1.74927e-05
9.27486e-06
1.45908e-05
1.05059e-05
1.56131e-05
1.67375e-05
1.96036e-05
2.17496e-05
2.33877e-05
2.30639e-05
2.45119e-05
2.20184e-05
2.3691e-05
2.19936e-05
2.01064e-05
1.9732e-05
1.86155e-05
1.36612e-05
1.69644e-05
9.96682e-06
1.60647e-05
1.01748e-05
1.78575e-05
1.38187e-05
1.87704e-05
1.90278e-05
2.03376e-05
2.22041e-05
2.29272e-05
2.22778e-05
2.54031e-05
2.16655e-05
2.42561e-05
2.26699e-05
1.99586e-05
2.06018e-05
1.94046e-05
1.49551e-05
1.94053e-05
1.16644e-05
1.82133e-05
1.00448e-05
1.68243e-05
1.24629e-05
1.73993e-05
1.87712e-05
1.93212e-05
2.25163e-05
2.34818e-05
2.20137e-05
2.40167e-05
2.01428e-05
2.31487e-05
2.0969e-05
1.84974e-05
1.97113e-05
1.83919e-05
1.26173e-05
1.84234e-05
9.14516e-06
1.77945e-05
9.28815e-06
1.79719e-05
1.2901e-05
1.7562e-05
1.9006e-05
1.88768e-05
2.19732e-05
2.18181e-05
2.05414e-05
2.52379e-05
2.04039e-05
2.43358e-05
2.16918e-05
1.8747e-05
2.06174e-05
1.90135e-05
1.32165e-05
2.00422e-05
1.03072e-05
1.94332e-05
9.92688e-06
1.87789e-05
1.30265e-05
1.81044e-05
1.99745e-05
1.91116e-05
2.33051e-05
2.28702e-05
2.10743e-05
2.42155e-05
1.74507e-05
2.31084e-05
2.05495e-05
1.58918e-05
2.01573e-05
1.81063e-05
1.0614e-05
1.95768e-05
7.40097e-06
1.91697e-05
7.72266e-06
1.84998e-05
1.13932e-05
1.63379e-05
1.95949e-05
1.66079e-05
2.20374e-05
2.11732e-05
1.79919e-05
2.52944e-05
1.85291e-05
2.48326e-05
2.09222e-05
1.70872e-05
2.12841e-05
1.85792e-05
1.09718e-05
2.15455e-05
8.02247e-06
2.12879e-05
8.35147e-06
2.04317e-05
1.22183e-05
1.81835e-05
2.08264e-05
1.79048e-05
2.41843e-05
2.21414e-05
1.96619e-05
2.42918e-05
1.42199e-05
2.39362e-05
1.93957e-05
1.25606e-05
2.13119e-05
1.76025e-05
6.91161e-06
2.12549e-05
3.90466e-06
2.09772e-05
4.54638e-06
1.94745e-05
8.58663e-06
1.48219e-05
1.98817e-05
1.37658e-05
2.2721e-05
1.96464e-05
1.49154e-05
2.59519e-05
1.56848e-05
2.57993e-05
1.99449e-05
1.38958e-05
2.25704e-05
1.78645e-05
7.94455e-06
2.3099e-05
4.89322e-06
2.29792e-05
5.64053e-06
2.16562e-05
9.73138e-06
1.75841e-05
2.18268e-05
1.54184e-05
2.51327e-05
2.09665e-05
1.68192e-05
2.52118e-05
7.80029e-06
2.65216e-05
1.8404e-05
5.63067e-06
2.44985e-05
1.69944e-05
-9.2385e-07
2.47744e-05
-3.38145e-06
2.44437e-05
-2.33282e-06
2.18648e-05
2.18416e-06
1.22245e-05
2.12683e-05
7.68336e-06
2.47796e-05
1.79828e-05
8.97994e-06
2.63337e-05
1.0547e-05
2.7632e-05
1.77729e-05
8.43256e-06
2.51569e-05
1.60933e-05
2.01251e-06
2.52634e-05
-9.23857e-07
2.49838e-05
1.31124e-07
2.28015e-05
4.47028e-06
1.57057e-05
2.20073e-05
1.03703e-05
2.63952e-05
1.81463e-05
1.19923e-05
2.83744e-05
-6.49172e-06
3.41566e-05
1.45575e-05
-1.16453e-05
3.40956e-05
1.39638e-05
-1.94983e-05
3.23917e-05
-2.02408e-05
3.13434e-05
-1.8557e-05
2.71305e-05
-1.37238e-05
6.97455e-06
2.47254e-05
-6.41722e-06
3.10388e-05
1.307e-05
-5.33257e-06
-0.0109139
-0.0105211
-0.0102141
-0.0100012
-0.00988324
-0.00986667
-0.00998225
-0.0102112
-0.0105478
-0.0109686
-0.0114524
-0.0119488
-0.0123952
-0.0127143
-0.012852
-0.0128188
-0.012625
-0.0122842
-0.0118448
-0.0113691
0.00234549
0.00230082
0.00216963
0.00200779
0.00185335
0.00176199
0.00169279
0.00160758
0.00148564
0.00133185
0.00113057
0.000908163
0.000718882
0.000624235
0.000683608
0.000947261
0.00132348
0.00171671
0.00205014
0.00226734
-0.00235114
-0.00210933
-0.00191624
-0.00177338
-0.0017174
-0.00176829
-0.00189249
-0.00203851
-0.00225304
-0.00250596
-0.00283527
-0.00318634
-0.00349228
-0.00366869
-0.00371277
-0.0036457
-0.00346729
-0.00319773
-0.00290231
-0.00261484
0.00288354
0.00295091
0.00297872
0.00299922
0.00300611
0.00300825
0.00294263
0.0028658
0.0027004
0.00250905
0.00218269
0.00181365
0.00150344
0.00136762
0.00148896
0.00174316
0.00207782
0.0023811
0.00261544
0.00278047
-0.000473194
-0.00032187
-0.000245581
-0.000195143
-0.000229901
-0.000243488
-0.000303156
-0.000348161
-0.000501537
-0.00069519
-0.00111243
-0.00161712
-0.00205038
-0.00228942
-0.00232161
-0.00214532
-0.00179067
-0.00138301
-0.00100095
-0.000691622
0.00200218
0.00210578
0.00215803
0.00220526
0.00220286
0.00219374
0.00211166
0.0020408
0.00184646
0.00162424
0.00111558
0.000583411
0.000204477
0.000135899
0.000340807
0.000693417
0.00107032
0.00139916
0.00166499
0.00186534
5.00939e-05
9.61381e-05
0.000101931
0.000107854
8.63157e-05
0.000108944
7.89721e-05
7.19295e-05
-7.36216e-05
-0.00028145
-0.000879309
-0.00151373
-0.00191671
-0.00198257
-0.00169879
-0.00125396
-0.000799834
-0.000443955
-0.000191002
-3.32624e-05
0.00124139
0.00131242
0.00134586
0.00138058
0.00135688
0.00134353
0.00126705
0.00120141
0.0010148
0.000765811
0.000122008
-0.000467099
-0.000725509
-0.000551376
-0.000168228
0.000232196
0.000587354
0.000839645
0.00102551
0.00115356
0.000166764
0.000177772
0.000166289
0.00016819
0.000161017
0.000185342
0.000165499
0.000160436
3.79927e-05
-0.000182298
-0.000855822
-0.00148312
-0.00168736
-0.00143059
-0.000958039
-0.000553112
-0.000231262
-3.98096e-05
8.18486e-05
0.000142562
0.000734939
0.000775413
0.000791961
0.00080796
0.000785543
0.000770502
0.000711019
0.000656005
0.000512956
0.000286699
-0.00033376
-0.000834051
-0.000838315
-0.000542008
-0.000127485
0.000164608
0.000392242
0.000522433
0.000622245
0.000686861
0.000174738
0.000179108
0.000169337
0.00017543
0.000170224
0.000188546
0.000173924
0.000177669
9.63119e-05
-4.86264e-05
-0.000620105
-0.00114648
-0.00108333
-0.000783011
-0.000402691
-0.000172265
2.99388e-06
8.41675e-05
0.000142321
0.00016553
0.000431755
0.0004528
0.000458896
0.000465256
0.000446294
0.000433391
0.000389811
0.000353704
0.000262739
0.000136461
-0.000325648
-0.000614548
-0.000499817
-0.000233887
3.5194e-05
0.000169653
0.000280807
0.000328814
0.000378131
0.000406755
0.000153272
0.000158209
0.000153521
0.000161072
0.000156466
0.000171986
0.000162806
0.000189121
0.000154634
0.000179407
-0.000198658
-0.000571265
-0.000483915
-0.000323861
-0.000116002
-2.55898e-05
6.49662e-05
9.69831e-05
0.00013245
0.000144895
0.000259616
0.000270287
0.00027112
0.000273587
0.000257445
0.000247395
0.000214585
0.0001958
0.00014917
0.000140243
-8.10631e-05
-0.000196353
-0.000123203
-8.38446e-06
0.000112222
0.000142761
0.000193599
0.000205799
0.000233351
0.000245818
0.000125939
0.000131862
0.000130806
0.000138017
0.000134201
0.000147801
0.000143506
0.000184526
0.000190997
0.000365004
0.000229189
-0.000145522
-0.000153535
-0.000138961
-4.80008e-05
-1.08156e-05
5.36361e-05
7.45584e-05
0.000105161
0.000116093
0.000164688
0.000170411
0.000169212
0.000169978
0.000156385
0.000148043
0.000121183
0.000108658
7.73681e-05
0.000144307
0.000251741
9.03405e-06
-2.22303e-05
-1.46802e-05
5.41149e-05
6.73527e-05
0.000114156
0.000124781
0.000147863
0.000155481
0.000101694
0.000107261
0.000107776
0.000113514
0.000110268
0.000119775
0.00011608
0.000141
0.000130322
0.000186008
0.000109319
-6.04146e-05
-5.43173e-05
-7.5728e-05
-1.46691e-05
-4.50238e-06
4.2219e-05
5.65939e-05
8.25104e-05
9.19724e-05
0.00011347
0.000116452
0.000114761
0.000114753
0.000103788
9.66633e-05
7.56873e-05
6.27443e-05
4.11733e-05
4.31765e-05
7.55563e-05
5.11381e-06
2.96019e-05
2.19058e-05
6.16655e-05
5.81335e-05
8.63697e-05
8.81127e-05
0.000103712
0.00010734
8.32083e-05
8.74095e-05
8.82056e-05
9.21108e-05
8.91418e-05
9.47875e-05
9.20405e-05
0.000104175
9.68375e-05
0.000106464
6.39268e-05
-2.52222e-05
-1.69032e-05
-4.08669e-05
5.09997e-07
3.57965e-06
3.79566e-05
4.74255e-05
6.77598e-05
7.48738e-05
8.54116e-05
8.68383e-05
8.53394e-05
8.49488e-05
7.64636e-05
7.06464e-05
5.50099e-05
4.30674e-05
2.735e-05
1.72593e-05
3.13529e-05
9.36017e-06
3.99696e-05
3.12953e-05
5.93373e-05
5.15538e-05
7.02064e-05
6.86981e-05
7.95317e-05
8.10693e-05
7.02707e-05
7.27868e-05
7.33918e-05
7.56304e-05
7.25749e-05
7.53804e-05
7.29808e-05
7.7532e-05
7.38558e-05
7.02944e-05
4.92224e-05
-5.13012e-06
9.46857e-07
-1.91074e-05
1.00095e-05
1.10124e-05
3.66046e-05
4.31562e-05
5.86844e-05
6.34775e-05
6.95405e-05
6.99322e-05
6.89351e-05
6.83361e-05
6.19062e-05
5.74908e-05
4.62665e-05
3.61507e-05
2.58457e-05
1.44261e-05
2.30001e-05
1.43994e-05
4.10467e-05
3.3193e-05
5.39779e-05
4.65453e-05
5.97274e-05
5.77793e-05
6.5683e-05
6.62165e-05
6.17947e-05
6.25993e-05
6.31018e-05
6.39515e-05
6.08086e-05
6.16693e-05
5.92034e-05
5.92779e-05
5.83046e-05
5.041e-05
4.21047e-05
6.57376e-06
1.27726e-05
-2.4979e-06
1.86874e-05
1.88219e-05
3.74527e-05
4.20627e-05
5.35132e-05
5.63484e-05
6.05221e-05
5.9793e-05
5.94638e-05
5.85943e-05
5.34863e-05
5.02804e-05
4.31071e-05
3.42124e-05
2.88701e-05
1.78833e-05
2.50139e-05
1.85437e-05
3.98002e-05
3.23119e-05
4.85877e-05
4.30478e-05
5.2677e-05
5.15302e-05
5.7512e-05
5.73222e-05
5.65454e-05
5.5659e-05
5.64193e-05
5.62645e-05
5.28847e-05
5.27331e-05
5.02052e-05
4.73282e-05
4.83893e-05
3.90952e-05
3.81707e-05
1.41196e-05
2.18456e-05
1.03217e-05
2.62497e-05
2.61521e-05
3.90934e-05
4.2588e-05
5.0787e-05
5.19063e-05
5.53291e-05
5.33613e-05
5.38493e-05
5.25049e-05
4.8239e-05
4.64103e-05
4.1472e-05
3.36798e-05
3.29388e-05
2.14024e-05
2.95282e-05
2.10732e-05
3.84937e-05
3.1419e-05
4.42131e-05
4.0948e-05
4.80068e-05
4.81142e-05
5.25333e-05
5.17747e-05
5.31968e-05
5.10797e-05
5.24918e-05
5.11327e-05
4.79319e-05
4.736e-05
4.52205e-05
3.99157e-05
4.28477e-05
3.26168e-05
3.69301e-05
1.93459e-05
2.88646e-05
1.90993e-05
3.20565e-05
3.19752e-05
4.07363e-05
4.38415e-05
4.91346e-05
4.92585e-05
5.24976e-05
4.85943e-05
5.05791e-05
4.87059e-05
4.45547e-05
4.38055e-05
4.04753e-05
3.29025e-05
3.59463e-05
2.36986e-05
3.33831e-05
2.27672e-05
3.81427e-05
3.07415e-05
4.16166e-05
4.02442e-05
4.46423e-05
4.64938e-05
4.9631e-05
4.80752e-05
5.19098e-05
4.76988e-05
5.04107e-05
4.78096e-05
4.42114e-05
4.49583e-05
4.222e-05
3.53539e-05
4.14471e-05
2.8476e-05
3.7997e-05
2.18404e-05
3.40667e-05
2.50852e-05
3.56672e-05
3.66722e-05
4.16388e-05
4.53035e-05
4.8064e-05
4.69776e-05
5.04477e-05
4.50626e-05
4.89154e-05
4.57168e-05
4.18976e-05
4.23642e-05
4.00047e-05
3.0962e-05
3.82398e-05
2.39837e-05
3.66075e-05
2.3245e-05
3.89429e-05
2.97519e-05
3.99963e-05
4.00849e-05
4.24119e-05
4.60782e-05
4.72628e-05
4.55633e-05
5.16702e-05
4.40393e-05
4.96471e-05
4.63183e-05
4.11794e-05
4.34214e-05
4.08644e-05
3.21013e-05
4.17614e-05
2.57578e-05
3.99311e-05
2.29482e-05
3.79714e-05
2.80622e-05
3.8299e-05
4.02019e-05
4.08954e-05
4.67993e-05
4.79232e-05
4.48753e-05
4.98257e-05
4.13895e-05
4.81754e-05
4.37025e-05
3.86461e-05
4.22245e-05
3.93204e-05
2.83184e-05
4.0799e-05
2.18234e-05
3.99244e-05
2.16986e-05
3.99175e-05
2.85283e-05
3.84601e-05
4.08028e-05
3.99525e-05
4.62738e-05
4.54674e-05
4.24486e-05
5.16124e-05
4.1098e-05
4.99327e-05
4.4419e-05
3.83489e-05
4.3586e-05
3.99869e-05
2.83712e-05
4.33903e-05
2.2671e-05
4.26885e-05
2.2139e-05
4.14828e-05
2.85043e-05
3.92027e-05
4.25221e-05
3.99157e-05
4.8413e-05
4.67383e-05
4.26917e-05
5.0351e-05
3.63098e-05
4.84827e-05
4.25623e-05
3.37145e-05
4.32122e-05
3.855e-05
2.39647e-05
4.32619e-05
1.78646e-05
4.29464e-05
1.8487e-05
4.1507e-05
2.57796e-05
3.66249e-05
4.22591e-05
3.59213e-05
4.69711e-05
4.41345e-05
3.78713e-05
5.20283e-05
3.68746e-05
5.11858e-05
4.27516e-05
3.44204e-05
4.51424e-05
3.89652e-05
2.33598e-05
4.65443e-05
1.75982e-05
4.65248e-05
1.84536e-05
4.46567e-05
2.62338e-05
3.89708e-05
4.429e-05
3.69929e-05
5.03094e-05
4.51433e-05
3.93959e-05
5.08789e-05
2.98908e-05
5.04343e-05
4.02688e-05
2.71147e-05
4.57514e-05
3.73384e-05
1.65205e-05
4.68547e-05
1.06487e-05
4.68441e-05
1.20836e-05
4.38234e-05
2.02546e-05
3.40587e-05
4.32479e-05
3.03693e-05
4.87162e-05
4.12427e-05
3.19563e-05
5.34833e-05
3.04679e-05
5.36542e-05
4.05596e-05
2.74133e-05
4.82809e-05
3.73298e-05
1.62025e-05
5.02585e-05
1.02589e-05
5.04885e-05
1.20106e-05
4.74489e-05
2.04386e-05
3.74365e-05
4.63035e-05
3.1349e-05
5.26196e-05
4.25088e-05
3.32952e-05
5.28089e-05
1.80415e-05
5.55245e-05
3.78552e-05
1.43536e-05
5.20378e-05
3.56555e-05
2.09601e-06
5.36021e-05
-3.04957e-06
5.34861e-05
-7.55114e-07
4.83747e-05
8.3755e-06
2.95708e-05
4.58356e-05
1.92068e-05
5.27924e-05
3.76207e-05
2.10975e-05
5.48612e-05
1.96962e-05
5.82087e-05
3.63003e-05
1.5827e-05
5.43928e-05
3.38373e-05
3.49353e-06
5.55641e-05
-2.24793e-06
5.54551e-05
2.04683e-07
5.05597e-05
9.2485e-06
3.36841e-05
4.73968e-05
2.08761e-05
5.59756e-05
3.69997e-05
2.32716e-05
5.80955e-05
-4.76735e-06
6.84626e-05
3.11808e-05
-1.28909e-05
6.83512e-05
3.03559e-05
-2.73482e-05
6.67307e-05
-3.01577e-05
6.54496e-05
-2.67464e-05
5.73435e-05
-1.70004e-05
2.14967e-05
5.16283e-05
-3.15587e-06
6.32752e-05
2.90297e-05
-1.35676e-06
-0.0134339
-0.0128842
-0.0124335
-0.0121044
-0.0119105
-0.0118795
-0.0120297
-0.0123394
-0.0127979
-0.0133702
-0.014021
-0.0146831
-0.0152754
-0.0157043
-0.0159026
-0.0158776
-0.0156436
-0.0152196
-0.0146626
-0.0140447
0.00196974
0.00202704
0.00195967
0.00182397
0.00166493
0.00154711
0.00141039
0.00123511
0.00100022
0.000715668
0.000370123
3.63929e-06
-0.000308408
-0.000481999
-0.000438953
-0.000129217
0.000350055
0.000886396
0.00138095
0.00175584
-0.00275111
-0.00243744
-0.00221403
-0.00207232
-0.00205194
-0.00215442
-0.00234758
-0.00258331
-0.00291424
-0.00330841
-0.0038061
-0.00432853
-0.00477395
-0.00501847
-0.00505318
-0.00487815
-0.00452521
-0.00405652
-0.00357268
-0.00312909
0.00335582
0.00343662
0.00345853
0.00346439
0.00344388
0.00340217
0.00327784
0.00312399
0.0028472
0.00251272
0.00199964
0.00144705
0.00101738
0.000877544
0.00112269
0.00156391
0.00210747
0.00259368
0.00296271
0.00321158
-0.000300962
-0.000138408
-6.37896e-05
-2.36193e-05
-8.14774e-05
-0.000119951
-0.00022766
-0.000338863
-0.000603196
-0.000950926
-0.00158703
-0.00229785
-0.00283027
-0.003042
-0.00291753
-0.00252593
-0.00196527
-0.00139918
-0.000914547
-0.000547287
0.00245118
0.00257244
0.00263039
0.00267884
0.00265769
0.00262561
0.00249532
0.00235946
0.00205036
0.0016649
0.000913912
0.000186227
-0.000247125
-0.000198423
0.000198008
0.000747444
0.00127996
0.00171366
0.00204604
0.00228833
0.000276533
0.000336582
0.000345592
0.000350006
0.000319202
0.000328286
0.000261004
0.000200735
-5.34387e-05
-0.000427751
-0.00129096
-0.00211612
-0.00253974
-0.00245802
-0.00197088
-0.0013481
-0.00076501
-0.000327236
-2.0875e-05
0.000171708
0.00156586
0.00165554
0.0016963
0.00173389
0.00169789
0.00166873
0.00155352
0.0014341
0.00114045
0.000722776
-0.000191077
-0.000941819
-0.0011602
-0.00082855
-0.00025687
0.000282064
0.000736638
0.0010543
0.00128895
0.00145273
0.00036029
0.000383082
0.000373999
0.000378462
0.000363444
0.000379369
0.00033039
0.000283369
6.69769e-05
-0.000313991
-0.00125876
-0.00203119
-0.00215984
-0.00173534
-0.00109311
-0.000574957
-0.000171711
7.14716e-05
0.000232011
0.000319108
0.000955654
0.00100889
0.0010295
0.00104706
0.00101557
0.000990032
0.000901742
0.000806866
0.00057885
0.000204964
-0.00066945
-0.00127349
-0.00117702
-0.000727649
-0.000175099
0.000202014
0.000494707
0.000666755
0.000801161
0.000890199
0.000322745
0.000335282
0.000326805
0.000335445
0.00032405
0.000337436
0.000302109
0.000278914
0.000129597
-0.000137469
-0.00094171
-0.00155326
-0.00137727
-0.000947707
-0.000454712
-0.000161236
6.54485e-05
0.000177336
0.000261856
0.00030204
0.000579697
0.000608598
0.000616395
0.000623965
0.000597953
0.000578638
0.000515485
0.000455438
0.000308977
8.32765e-05
-0.000574861
-0.000903011
-0.000685242
-0.000317269
3.45631e-05
0.000210446
0.000360063
0.000430087
0.00050116
0.000544008
0.000261905
0.000272581
0.000268719
0.000278492
0.000269175
0.00028282
0.000260717
0.00027668
0.00020411
0.000169221
-0.000372608
-0.000787238
-0.000614543
-0.000387524
-0.000117361
-1.77202e-07
0.000121224
0.000169301
0.000222482
0.000245503
0.000360238
0.000375897
0.000377329
0.000380888
0.000359231
0.000345665
0.000300089
0.000270842
0.000195855
0.000144016
-0.000190525
-0.000320028
-0.000182314
-2.4178e-05
0.000137091
0.000180927
0.000254177
0.000276781
0.000318669
0.000339473
0.000205265
0.000215427
0.000214998
0.000224127
0.000216713
0.000230317
0.000218497
0.000260356
0.000252675
0.000422515
0.000205288
-0.000226766
-0.000192528
-0.000160844
-3.64029e-05
1.0372e-05
9.65936e-05
0.000127023
0.000171117
0.000189288
0.000235746
0.000244854
0.000243821
0.000245518
0.000227485
0.000217101
0.000181158
0.000164795
0.000119368
0.000186737
0.000272661
-3.00147e-05
-4.03053e-05
-2.45952e-05
7.09111e-05
9.10278e-05
0.000156449
0.00017395
0.00020827
0.000221452
0.00016097
0.00016964
0.000170588
0.000177818
0.000171655
0.000181463
0.000172481
0.000199023
0.000179248
0.000239133
0.000132677
-8.7422e-05
-6.83167e-05
-9.12327e-05
-6.18208e-06
8.91416e-06
7.37214e-05
9.48871e-05
0.000131745
0.000146427
0.000166499
0.000171775
0.000170064
0.00017075
0.000156171
0.000147568
0.000119712
0.000103896
7.31043e-05
7.36904e-05
9.75269e-05
-5.08874e-06
3.12395e-05
2.07681e-05
7.89222e-05
7.71045e-05
0.000119332
0.000125064
0.000149252
0.000156563
0.00012949
0.000135799
0.000136818
0.00014173
0.000136279
0.000141967
0.000135221
0.00014753
0.000134207
0.000142508
8.60341e-05
-3.32691e-05
-1.67397e-05
-4.65821e-05
1.16452e-05
1.64711e-05
6.44528e-05
7.81375e-05
0.000106828
0.000117472
0.000127498
0.000130373
0.000128773
0.000128806
0.000117376
0.000110354
8.95187e-05
7.47208e-05
5.26175e-05
3.85337e-05
4.85211e-05
1.00031e-05
5.05693e-05
3.70211e-05
7.82827e-05
6.98188e-05
9.86462e-05
9.92043e-05
0.000116427
0.000120294
0.000108388
0.000112143
0.000112818
0.000115604
0.000110348
0.000112906
0.000107349
0.000110926
0.000103408
9.61449e-05
6.8478e-05
-4.11611e-06
8.53653e-06
-1.74026e-05
2.40516e-05
2.52786e-05
6.09402e-05
7.00344e-05
9.17829e-05
9.88015e-05
0.000104988
0.000106111
0.00010502
0.000104572
9.57103e-05
9.0309e-05
7.52217e-05
6.2328e-05
4.79643e-05
3.1859e-05
3.90025e-05
2.06964e-05
5.5723e-05
4.31184e-05
7.37665e-05
6.50009e-05
8.56884e-05
8.4879e-05
9.75367e-05
9.94583e-05
9.49163e-05
9.61764e-05
9.67203e-05
9.77087e-05
9.25619e-05
9.29985e-05
8.79955e-05
8.63771e-05
8.32328e-05
7.09851e-05
6.02396e-05
1.29468e-05
2.4963e-05
4.7124e-06
3.52047e-05
3.49873e-05
6.0982e-05
6.71978e-05
8.31969e-05
8.72866e-05
9.20095e-05
9.13156e-05
9.1014e-05
9.00071e-05
8.2796e-05
7.8823e-05
6.88758e-05
5.72437e-05
4.98265e-05
3.41178e-05
4.16861e-05
2.83029e-05
5.66316e-05
4.49045e-05
6.88552e-05
6.21203e-05
7.72931e-05
7.6969e-05
8.64642e-05
8.69545e-05
8.67014e-05
8.55177e-05
8.6466e-05
8.60803e-05
8.08069e-05
8.02339e-05
7.5656e-05
7.05777e-05
7.091e-05
5.70538e-05
5.63487e-05
2.40072e-05
3.72954e-05
2.16004e-05
4.47611e-05
4.42461e-05
6.24322e-05
6.71263e-05
7.8568e-05
8.01932e-05
8.45113e-05
8.18625e-05
8.26577e-05
8.0838e-05
7.46562e-05
7.23661e-05
6.53569e-05
5.47828e-05
5.37315e-05
3.73137e-05
4.74774e-05
3.30479e-05
5.68057e-05
4.59211e-05
6.48997e-05
6.08878e-05
7.19398e-05
7.29249e-05
7.98341e-05
7.9198e-05
8.16449e-05
7.84812e-05
8.04533e-05
7.84383e-05
7.34131e-05
7.26104e-05
6.88126e-05
6.08081e-05
6.44127e-05
4.92585e-05
5.58669e-05
3.15771e-05
4.67701e-05
3.31903e-05
5.20629e-05
5.17659e-05
6.40908e-05
6.84043e-05
7.58376e-05
7.59096e-05
8.04318e-05
7.49668e-05
7.78197e-05
7.5071e-05
6.90028e-05
6.82173e-05
6.32531e-05
5.26167e-05
5.70236e-05
3.93939e-05
5.26923e-05
3.61296e-05
5.77557e-05
4.66033e-05
6.2764e-05
6.11872e-05
6.8163e-05
7.12741e-05
7.5999e-05
7.40499e-05
7.95287e-05
7.33036e-05
7.72656e-05
7.35063e-05
6.7963e-05
6.9047e-05
6.478e-05
5.46423e-05
6.30838e-05
4.42493e-05
5.8124e-05
3.53564e-05
5.38785e-05
4.099e-05
5.66654e-05
5.79177e-05
6.49272e-05
7.02156e-05
7.41184e-05
7.24387e-05
7.77302e-05
6.97517e-05
7.53853e-05
7.07519e-05
6.48528e-05
6.59794e-05
6.21588e-05
4.93678e-05
5.99135e-05
3.91516e-05
5.72958e-05
3.72121e-05
5.98125e-05
4.63719e-05
6.15094e-05
6.19864e-05
6.55333e-05
7.11656e-05
7.29913e-05
7.04265e-05
7.89897e-05
6.79901e-05
7.60617e-05
7.10239e-05
6.34746e-05
6.6981e-05
6.28794e-05
4.99815e-05
6.40125e-05
4.06155e-05
6.14312e-05
3.68759e-05
5.9326e-05
4.47909e-05
5.99119e-05
6.26514e-05
6.376e-05
7.22297e-05
7.35758e-05
6.92515e-05
7.69277e-05
6.44124e-05
7.4418e-05
6.78024e-05
6.00838e-05
6.56678e-05
6.1037e-05
4.52411e-05
6.33897e-05
3.58692e-05
6.20823e-05
3.53734e-05
6.19386e-05
4.52357e-05
6.00618e-05
6.36108e-05
6.23687e-05
7.1836e-05
7.06406e-05
6.60685e-05
7.89356e-05
6.33651e-05
7.64257e-05
6.82779e-05
5.9061e-05
6.72652e-05
6.15985e-05
4.45177e-05
6.66509e-05
3.60967e-05
6.57174e-05
3.54947e-05
6.42124e-05
4.50821e-05
6.09233e-05
6.59381e-05
6.19724e-05
7.44869e-05
7.18376e-05
6.57712e-05
7.75999e-05
5.72785e-05
7.49936e-05
6.59045e-05
5.31808e-05
6.7077e-05
5.98424e-05
3.88135e-05
6.70379e-05
3.00203e-05
6.66627e-05
3.08947e-05
6.46812e-05
4.1625e-05
5.79178e-05
6.5906e-05
5.6992e-05
7.31474e-05
6.86461e-05
5.97783e-05
7.95829e-05
5.69295e-05
7.82618e-05
6.57758e-05
5.29765e-05
6.95689e-05
6.00897e-05
3.70352e-05
7.12411e-05
2.86497e-05
7.13088e-05
3.00232e-05
6.86866e-05
4.1495e-05
6.03149e-05
6.85102e-05
5.74621e-05
7.71939e-05
6.94231e-05
6.06229e-05
7.84347e-05
4.81361e-05
7.78251e-05
6.2646e-05
4.3814e-05
7.0743e-05
5.80466e-05
2.82456e-05
7.22535e-05
1.97521e-05
7.2384e-05
2.19201e-05
6.82197e-05
3.39511e-05
5.45498e-05
6.75821e-05
4.9224e-05
7.57726e-05
6.462e-05
5.14391e-05
8.15355e-05
4.739e-05
8.19469e-05
6.25185e-05
4.26615e-05
7.42485e-05
5.77095e-05
2.62329e-05
7.68098e-05
1.77065e-05
7.72532e-05
2.04015e-05
7.28046e-05
3.28838e-05
5.78377e-05
7.1326e-05
4.91032e-05
8.05966e-05
6.54854e-05
5.16595e-05
8.09552e-05
3.22592e-05
8.46779e-05
5.90313e-05
2.67461e-05
7.92753e-05
5.55031e-05
8.98771e-06
8.13417e-05
1.36713e-06
8.1373e-05
4.77974e-06
7.43045e-05
1.81191e-05
4.8588e-05
7.10063e-05
3.43799e-05
8.12421e-05
5.9361e-05
3.68935e-05
8.35432e-05
3.23632e-05
8.85241e-05
5.67385e-05
2.64246e-05
8.29977e-05
5.30365e-05
8.37289e-06
8.45177e-05
1.91063e-07
8.45292e-05
3.90668e-06
7.7399e-05
1.7272e-05
5.25043e-05
7.31691e-05
3.4601e-05
8.54788e-05
5.79598e-05
3.76625e-05
8.70995e-05
4.6076e-06
0.000100509
5.06239e-05
-6.08125e-06
9.93422e-05
4.89032e-05
-2.65533e-05
9.75689e-05
-3.14936e-05
9.62174e-05
-2.66699e-05
8.5181e-05
-1.25612e-05
3.85526e-05
7.79432e-05
7.3775e-06
9.38494e-05
4.83897e-05
9.85315e-06
-0.0148392
-0.0142132
-0.0136978
-0.0133209
-0.0131044
-0.0130841
-0.0132686
-0.0136353
-0.0141708
-0.014833
-0.0155783
-0.0163286
-0.016992
-0.0174652
-0.0176768
-0.0176346
-0.0173559
-0.016867
-0.0162327
-0.0155321
0.00146183
0.0015705
0.00153954
0.0014243
0.00127431
0.00114829
0.00097125
0.000738482
0.000428112
5.63316e-05
-0.000382677
-0.000836992
-0.00121653
-0.00142495
-0.00137363
-0.00102026
-0.000472476
0.000147294
0.000727673
0.00118163
-0.00310051
-0.00273872
-0.00249261
-0.00234804
-0.0023523
-0.00248866
-0.00272983
-0.0030305
-0.00344538