/*--------------------------------*- C++ -*----------------------------------*\
| =========                 |                                                 |
| \\      /  F ield         | OpenFOAM: The Open Source CFD Toolbox           |
|  \\    /   O peration     | Version:  2.4.0                                 |
|   \\  /    A nd           | Web:      www.OpenFOAM.org                      |
|    \\/     M anipulation  |                                                 |
\*---------------------------------------------------------------------------*/
FoamFile
{
    version     2.0;
    format      ascii;
    class       volScalarField;
    location    "20";
    object      epsilon;
}
// * * * * * * * * * * * * * * * * * * * * * * * * * * * * * * * * * * * * * //

dimensions      [0 2 -3 0 0 0 0];

internalField   nonuniform List<scalar> 
283312
(
0.000625578
0.000616073
0.000611991
0.000610649
0.000610211
0.00060993
0.000609522
0.000609151
0.000608227
0.000604453
0.00059989
0.000603361
0.000611018
0.000614539
0.000613893
0.000612065
0.000610778
0.00061015
0.000610054
0.000614046
0.000601007
0.000591656
0.000588121
0.00058692
0.000586457
0.000586214
0.00058604
0.000586191
0.000586084
0.000582387
0.000581897
0.000592466
0.000601147
0.00060254
0.000600062
0.000597193
0.0005948
0.000592777
0.000591138
0.000592614
0.000580265
0.000571733
0.000569067
0.000568262
0.000567983
0.000567868
0.00056788
0.000568271
0.000568604
0.00056476
0.000569796
0.000583937
0.000589042
0.000587849
0.000584613
0.000581382
0.000578392
0.000575783
0.00057364
0.00057409
0.000565273
0.000557683
0.000555564
0.000554919
0.000554676
0.000554591
0.000554686
0.000555187
0.000556542
0.000552976
0.000564393
0.000579319
0.000580231
0.000576961
0.000572613
0.000568892
0.000565686
0.000563059
0.000560865
0.000560776
0.000554309
0.000547691
0.000545928
0.000545278
0.000544975
0.000544815
0.000544852
0.000545298
0.000547935
0.000545189
0.000562615
0.000575197
0.000572134
0.000567213
0.000562222
0.000558714
0.000555804
0.000553467
0.00055142
0.000551072
0.000546501
0.00054076
0.000539199
0.00053841
0.000537968
0.000537677
0.000537586
0.000537929
0.000542041
0.000540562
0.000561298
0.00057178
0.000565109
0.000558812
0.000553882
0.000550999
0.000548518
0.000546519
0.00054467
0.0005442
0.000540907
0.00053594
0.000534497
0.000533548
0.00053289
0.000532432
0.000532174
0.000532426
0.000537773
0.000537867
0.0005554
0.000567523
0.000558413
0.000551899
0.000547562
0.000545298
0.000543177
0.000541475
0.000539828
0.000539309
0.00053703
0.000532733
0.000531363
0.000530257
0.00052935
0.000528641
0.000528131
0.000528215
0.000534257
0.000536769
0.000556431
0.000566409
0.000552639
0.000546282
0.000542795
0.000541069
0.000539296
0.000537872
0.000536446
0.00053593
0.000534453
0.000530704
0.000529385
0.000528156
0.000527055
0.000526057
0.000525316
0.000525267
0.00053329
0.000538122
0.00055661
0.000560219
0.000546966
0.000541966
0.000539387
0.000538009
0.000536552
0.000535365
0.000534157
0.000533676
0.000532758
0.000529466
0.000528205
0.000526904
0.00052567
0.000524437
0.000523456
0.000523237
0.000533925
0.00054023
0.000556605
0.000556943
0.000543008
0.00053878
0.000536891
0.000535749
0.000534578
0.000533606
0.000532615
0.000532177
0.000531715
0.0005288
0.000527627
0.000526311
0.000524999
0.000523601
0.000522414
0.0005219
0.000533416
0.00054167
0.000557232
0.000554716
0.000539812
0.000536311
0.000535017
0.000534078
0.000533174
0.000532405
0.000531625
0.000531234
0.000531163
0.000528545
0.000527492
0.000526198
0.000524853
0.000523386
0.000522094
0.00052129
0.000531994
0.000541509
0.000559085
0.000553171
0.000537479
0.000534488
0.000533643
0.000532879
0.000532216
0.000531642
0.000531056
0.000530701
0.000530991
0.000528598
0.000527686
0.000526442
0.000525095
0.000523624
0.000522268
0.000521281
0.000532817
0.00054484
0.000558025
0.00055496
0.000535445
0.000532993
0.00053259
0.000532038
0.000531608
0.000531217
0.000530813
0.000530478
0.000531112
0.000528873
0.000528124
0.000526954
0.000525644
0.000524233
0.000522888
0.00052182
0.000534157
0.000548712
0.000559797
0.000555032
0.000533912
0.000531907
0.000531871
0.000531529
0.000531288
0.00053106
0.000530829
0.00053049
0.000531464
0.000529311
0.000528749
0.000527652
0.000526422
0.000525116
0.00052386
0.000522799
0.000536003
0.0005529
0.000560657
0.000554359
0.000532872
0.000531078
0.000531405
0.000531278
0.000531184
0.000531109
0.000531052
0.000530678
0.000532003
0.000529866
0.000529516
0.000528485
0.000527354
0.000526182
0.000525111
0.000524066
0.000537353
0.00055827
0.000563685
0.000545705
0.00053226
0.000530597
0.000531184
0.000531256
0.000531255
0.000531329
0.000531442
0.000530998
0.000532697
0.000530505
0.000530396
0.000529419
0.000528396
0.000527358
0.000526564
0.000525199
0.000527846
0.000550569
0.000556695
0.00053237
0.000531873
0.000530388
0.000531154
0.000531413
0.000531464
0.000531686
0.000531974
0.000531413
0.000533522
0.000531201
0.000531365
0.000530425
0.000529503
0.00052858
0.000528091
0.000526529
0.000527832
0.000529512
0.000536682
0.000529914
0.00053187
0.000530421
0.000531286
0.000531726
0.00053179
0.000532159
0.000532631
0.000531899
0.000534459
0.000531933
0.000532406
0.000531491
0.000530652
0.000529829
0.000529647
0.000527781
0.000529491
0.000528311
0.000533078
0.000529687
0.00053215
0.000530597
0.000531543
0.000532169
0.000532209
0.000532733
0.0005334
0.000532435
0.000535499
0.000532687
0.000533506
0.000532606
0.000531824
0.000531089
0.000531216
0.000528939
0.000531234
0.000528829
0.000533302
0.000529866
0.000532659
0.000530881
0.000531902
0.000532726
0.000532702
0.000533394
0.000534272
0.000533005
0.000536632
0.00053345
0.000534657
0.000533766
0.000533003
0.000532357
0.000532801
0.000529999
0.000532954
0.000529444
0.000534198
0.000530133
0.000533342
0.000531239
0.000532339
0.000533385
0.000533254
0.000534136
0.000535243
0.000533596
0.000537855
0.000534211
0.000535856
0.000534972
0.000534176
0.000533635
0.000534403
0.000530976
0.00053468
0.000530025
0.000535341
0.000530452
0.000534172
0.00053165
0.000532839
0.000534141
0.000533853
0.000534954
0.00053631
0.000534198
0.000539162
0.00053496
0.000537097
0.000536227
0.00053533
0.000534925
0.000536033
0.000531879
0.000536425
0.000530567
0.000536652
0.000530783
0.000535132
0.0005321
0.00053338
0.000534989
0.000534486
0.000535849
0.000537473
0.000534797
0.000540556
0.00053569
0.000538378
0.000537537
0.000536457
0.00053624
0.000537698
0.000532713
0.000538209
0.000531061
0.000538101
0.000531117
0.000536206
0.000532579
0.000533953
0.000535932
0.00053514
0.000536819
0.000538733
0.00053539
0.000542033
0.000536391
0.0005397
0.000538911
0.00053754
0.000537583
0.000539406
0.00053348
0.000540045
0.000531511
0.00053967
0.000531446
0.000537386
0.000533079
0.00053454
0.00053697
0.000535803
0.00053787
0.000540092
0.00053596
0.000543598
0.000537054
0.000541063
0.000540361
0.000538571
0.000538969
0.00054117
0.000534188
0.000541938
0.000531915
0.000541349
0.000531767
0.000538674
0.000533594
0.000535133
0.000538114
0.000536466
0.000539007
0.000541558
0.000536506
0.000545252
0.000537672
0.000542465
0.000541897
0.000539532
0.000540404
0.000542993
0.000534829
0.000543895
0.000532276
0.000543135
0.000532078
0.000540061
0.000534114
0.000535715
0.000539373
0.000537116
0.000540233
0.000543138
0.000537014
0.000546992
0.00053823
0.000543913
0.000543529
0.0005404
0.000541896
0.000544889
0.000535407
0.000545927
0.000532605
0.00054503
0.000532386
0.000541556
0.000534636
0.000536274
0.000540753
0.00053774
0.000541557
0.000544835
0.000537467
0.000548827
0.000538719
0.000545411
0.000545278
0.000541167
0.000543464
0.000546872
0.000535921
0.000548033
0.00053291
0.000547026
0.000532694
0.000543166
0.000535153
0.000536799
0.000542275
0.000538326
0.00054299
0.000546663
0.000537864
0.000550761
0.000539128
0.000546959
0.000547159
0.000541806
0.000545111
0.000548945
0.000536359
0.00055022
0.000533203
0.000549131
0.000533008
0.000544893
0.000535656
0.000537275
0.000543949
0.000538861
0.000544534
0.000548633
0.000538189
0.000552789
0.000539436
0.000548574
0.000549191
0.000542287
0.000546853
0.000551137
0.000536711
0.000552494
0.000533478
0.000551348
0.000533319
0.000546754
0.00053614
0.000537685
0.000545788
0.000539325
0.00054621
0.00055076
0.00053842
0.000554924
0.000539647
0.000550259
0.000551393
0.000542606
0.000548701
0.000553452
0.00053699
0.000554845
0.000533753
0.000553668
0.000533642
0.00054876
0.0005366
0.000538028
0.000547819
0.000539716
0.000548019
0.000553054
0.000538568
0.000557169
0.000539696
0.00055202
0.000553795
0.000542692
0.000550663
0.00055592
0.000537133
0.000557287
0.000533968
0.000556103
0.000533916
0.000550926
0.000537001
0.000538249
0.000550054
0.00053997
0.000549976
0.000555545
0.000538573
0.000559526
0.000539666
0.000553863
0.000556398
0.000542598
0.00055274
0.000558536
0.000537231
0.000559818
0.00053423
0.000558655
0.000534244
0.000553271
0.00053738
0.000538409
0.000552525
0.000540163
0.000552079
0.000558222
0.000538513
0.000561995
0.000539338
0.000555827
0.000559271
0.000542115
0.000554968
0.000561375
0.000537075
0.00056243
0.000534328
0.000561319
0.000534424
0.000555818
0.000537609
0.000538352
0.000555235
0.000540077
0.000554373
0.000561162
0.000538214
0.000564611
0.000539058
0.000557876
0.000562382
0.000541553
0.000557292
0.000564375
0.000536953
0.000565139
0.000534548
0.000564112
0.000534723
0.000558595
0.000537864
0.000538279
0.000558268
0.00054004
0.000556803
0.000564316
0.000537941
0.000567316
0.000538156
0.000560097
0.000565858
0.000540262
0.000559828
0.000567703
0.00053635
0.000567921
0.000534436
0.00056702
0.000534714
0.000561644
0.000537784
0.000537809
0.000561545
0.000539394
0.000559459
0.000567808
0.000537227
0.000570235
0.00053765
0.000562429
0.000569587
0.000539237
0.000562434
0.000571218
0.000535976
0.000570831
0.000534597
0.000570092
0.000534952
0.000564993
0.000537933
0.000537487
0.000565293
0.000539147
0.000562249
0.000571538
0.000536788
0.000573267
0.00054061
0.000565149
0.000573815
0.000541422
0.00056544
0.000575173
0.000539687
0.000573834
0.000540143
0.000573317
0.000540877
0.000568747
0.000542129
0.000541322
0.000569369
0.000542188
0.000565477
0.000575676
0.000540161
0.000600361
0.00207948
0.00060307
0.000579472
0.00206924
0.000601343
0.000581366
0.00202064
0.000594259
0.00210157
0.000593573
0.00219118
0.000591757
0.00231634
0.00180982
0.000606659
0.00198567
0.000608543
0.000580348
0.00196776
0.000636162
0.000626568
0.000622135
0.000620599
0.000620122
0.000619877
0.000619541
0.000619284
0.000618543
0.00061484
0.000609832
0.000612823
0.000621057
0.000625494
0.000625079
0.000622916
0.000621201
0.000620272
0.000619991
0.00062371
0.000609435
0.000599773
0.000595869
0.000594509
0.000594031
0.000593841
0.000593767
0.000594085
0.000594263
0.000590653
0.000589771
0.000600616
0.000610557
0.000612609
0.000609896
0.000606497
0.000603631
0.000601226
0.000599264
0.000600376
0.000586642
0.000577693
0.000574774
0.000573917
0.000573696
0.000573679
0.000573829
0.000574435
0.000575164
0.0005714
0.000576345
0.000591484
0.00059767
0.00059645
0.000592701
0.00058892
0.000585432
0.000582383
0.000579868
0.000579962
0.000570099
0.000562069
0.000559797
0.000559176
0.000559037
0.000559081
0.000559339
0.000560078
0.000561989
0.00055856
0.000570421
0.00058683
0.000588215
0.00058438
0.00057931
0.000574949
0.000571216
0.000568159
0.000565615
0.000565208
0.00055797
0.000550935
0.000549069
0.000548506
0.000548332
0.000548322
0.000548529
0.000549215
0.000552628
0.000550114
0.000568617
0.00058268
0.000579314
0.000573443
0.000567607
0.000563481
0.000560107
0.000557404
0.000555053
0.000554435
0.000549313
0.000543194
0.000541556
0.000540876
0.000540577
0.000540448
0.00054053
0.000541105
0.000546219
0.000545125
0.000567291
0.000579091
0.000571457
0.000563921
0.000558147
0.00055475
0.000551892
0.000549594
0.000547487
0.000546787
0.000543106
0.000537803
0.000536294
0.00053542
0.00053492
0.000534638
0.000534552
0.000535032
0.000541556
0.000542228
0.000560693
0.000574288
0.000563844
0.000556028
0.000550961
0.0005483
0.00054587
0.000543922
0.000542056
0.000541343
0.000538778
0.000534185
0.00053275
0.000531678
0.000530896
0.000530386
0.000530035
0.00053035
0.000537677
0.000541022
0.000561855
0.000573133
0.000557243
0.000549585
0.00054552
0.000543496
0.000541473
0.000539847
0.000538237
0.000537556
0.000535869
0.00053186
0.000530473
0.000529244
0.000528213
0.000527408
0.000526821
0.000527019
0.000536643
0.000542531
0.000562041
0.000566057
0.000550592
0.000544595
0.000541602
0.000539998
0.000538334
0.000536983
0.000535623
0.000535
0.000533926
0.000530407
0.000529075
0.000527745
0.000526536
0.000525423
0.0005246
0.000524649
0.000537357
0.000544832
0.000562041
0.000562274
0.000545919
0.000540906
0.000538713
0.000537393
0.000536054
0.000534949
0.000533834
0.000533276
0.000532699
0.000529585
0.000528341
0.000526974
0.000525652
0.000524304
0.000523213
0.000522998
0.000536621
0.000546264
0.00056271
0.000559691
0.000542143
0.000538037
0.000536524
0.000535445
0.000534409
0.000533535
0.000532657
0.000532162
0.000532008
0.000529213
0.000528094
0.000526735
0.000525355
0.000523884
0.000522629
0.000522085
0.000534769
0.000545903
0.000564758
0.000557856
0.000539356
0.000535897
0.000534897
0.000534023
0.00053326
0.000532605
0.000531944
0.000531497
0.00053173
0.000529177
0.000528206
0.000526891
0.000525492
0.000523978
0.000522618
0.000521767
0.000535461
0.000549388
0.000563388
0.000559855
0.000536931
0.000534132
0.000533633
0.000532999
0.000532499
0.000532046
0.000531587
0.000531171
0.000531769
0.000529383
0.000528584
0.000527342
0.000525972
0.000524494
0.000523115
0.00052209
0.000536638
0.000553483
0.000565321
0.000559874
0.000535071
0.000532823
0.000532742
0.000532341
0.000532057
0.000531781
0.000531513
0.000531098
0.000532057
0.000529766
0.000529164
0.000527997
0.000526707
0.000525321
0.000524015
0.000522933
0.00053838
0.000557918
0.00056614
0.000559002
0.000533778
0.000531805
0.000532133
0.000531969
0.000531853
0.000531742
0.000531663
0.000531217
0.000532547
0.000530277
0.000529898
0.000528798
0.000527614
0.000526359
0.000525236
0.000524134
0.000539541
0.00056379
0.000569534
0.000548805
0.000532984
0.000531176
0.000531801
0.000531851
0.000531842
0.000531887
0.000531994
0.000531478
0.000533201
0.000530877
0.000530753
0.000529708
0.000528642
0.000527521
0.000526689
0.000525222
0.000528094
0.000554392
0.000561191
0.000533135
0.000532442
0.000530855
0.000531682
0.000531927
0.000531984
0.000532181
0.000532479
0.000531843
0.000533996
0.000531541
0.000531703
0.000530697
0.000529741
0.000528736
0.000528232
0.000526552
0.000527902
0.000529624
0.000537668
0.000530194
0.000532339
0.000530806
0.000531744
0.000532175
0.000532254
0.000532601
0.000533097
0.000532284
0.000534909
0.000532244
0.000532729
0.00053175
0.000530888
0.000529982
0.000529811
0.000527808
0.000529601
0.000528279
0.000533443
0.000529869
0.000532555
0.000530918
0.000531944
0.000532563
0.000532625
0.000533127
0.000533834
0.000532779
0.000535929
0.000532972
0.000533817
0.000532855
0.00053206
0.000531241
0.000531404
0.000528971
0.000531392
0.000528803
0.000533598
0.000530002
0.000533024
0.000531151
0.000532257
0.000533073
0.000533077
0.000533747
0.00053468
0.000533312
0.000537048
0.000533711
0.00053496
0.000534007
0.000533241
0.000532509
0.000533016
0.000530033
0.000533153
0.000529423
0.000534493
0.000530235
0.000533678
0.000531466
0.000532656
0.000533693
0.000533595
0.000534452
0.000535631
0.000533869
0.000538261
0.000534449
0.00053615
0.000535207
0.000534415
0.000533787
0.000534643
0.000531009
0.000534917
0.000530002
0.000535643
0.000530524
0.00053449
0.000531841
0.000533123
0.000534415
0.000534164
0.000535239
0.000536683
0.000534439
0.000539562
0.000535177
0.000537385
0.000536459
0.000535571
0.000535078
0.000536298
0.000531907
0.000536697
0.000530535
0.000536966
0.000530826
0.000535438
0.00053226
0.000533638
0.000535236
0.000534771
0.000536105
0.000537836
0.000535008
0.000540953
0.000535887
0.000538663
0.000537769
0.000536699
0.000536394
0.000537988
0.000532734
0.000538513
0.000531017
0.000538429
0.000531134
0.000536505
0.000532711
0.000534188
0.000536155
0.000535402
0.000537051
0.000539091
0.000535573
0.000542431
0.000536571
0.000539982
0.000539146
0.000537783
0.000537739
0.000539722
0.000533492
0.00054038
0.000531452
0.000540016
0.000531438
0.000537683
0.000533188
0.000534758
0.000537175
0.000536047
0.000538082
0.00054045
0.000536119
0.000544001
0.000537218
0.000541344
0.000540602
0.000538815
0.000539129
0.000541512
0.000534191
0.000542303
0.000531841
0.000541714
0.000531737
0.000538972
0.000533683
0.000535336
0.000538305
0.000536694
0.000539202
0.00054192
0.000536642
0.000545664
0.000537822
0.000542748
0.000542148
0.000539777
0.00054057
0.000543363
0.000534823
0.000544291
0.000532187
0.000543521
0.00053203
0.000540364
0.000534188
0.000535909
0.000539555
0.000537332
0.000540416
0.00054351
0.000537131
0.000547416
0.00053837
0.0005442
0.000543796
0.000540646
0.000542071
0.00054529
0.000535394
0.000546356
0.000532506
0.000545441
0.000532327
0.000541869
0.000534701
0.000536463
0.000540932
0.000537949
0.000541734
0.000545222
0.000537569
0.000549268
0.000538854
0.000545704
0.000545565
0.000541415
0.000543653
0.000547307
0.000535904
0.000548495
0.000532809
0.000547463
0.000532634
0.000543492
0.000535213
0.000536988
0.000542456
0.000538534
0.000543165
0.000547071
0.000537955
0.000551222
0.000539261
0.000547262
0.000547472
0.000542058
0.000545317
0.000549416
0.000536342
0.000550717
0.000533112
0.000549598
0.000532957
0.000545237
0.000535718
0.000537471
0.00054414
0.000539072
0.000544715
0.000549068
0.000538276
0.000553276
0.000539574
0.000548892
0.000549537
0.000542547
0.000547084
0.000551648
0.000536702
0.000553028
0.000533411
0.000551849
0.000533292
0.000547121
0.000536212
0.000537896
0.000545996
0.000539548
0.000546403
0.000551227
0.000538511
0.000555441
0.000539795
0.000550595
0.000551777
0.000542874
0.00054896
0.000554008
0.000536994
0.000555419
0.000533721
0.000554205
0.00053365
0.000549154
0.000536687
0.000538259
0.000548051
0.000539955
0.000548231
0.00055356
0.000538671
0.000557722
0.000539871
0.000552383
0.000554227
0.000542979
0.00055096
0.000556526
0.000537166
0.000557905
0.000533994
0.000556682
0.00053398
0.000551356
0.00053712
0.000538519
0.000550322
0.000540243
0.000550218
0.000556099
0.000538707
0.000560118
0.000539868
0.000554254
0.000556881
0.000542902
0.000553078
0.000559194
0.000537296
0.000560481
0.000534317
0.000559278
0.000534366
0.00055374
0.000537529
0.000538718
0.000552836
0.000540469
0.000552356
0.000558827
0.000538679
0.000562635
0.000539597
0.000556259
0.000559816
0.000542457
0.000555361
0.000562094
0.000537203
0.000563144
0.00053451
0.000561993
0.000534635
0.000556339
0.000537821
0.000538731
0.000555603
0.000540447
0.000554703
0.000561828
0.000538445
0.000565301
0.000539371
0.000558348
0.000562989
0.000541926
0.000557738
0.000565155
0.000537144
0.000565904
0.000534816
0.00056484
0.000535016
0.00055917
0.000538128
0.000538724
0.000558701
0.00054047
0.000557186
0.000565044
0.000538234
0.000568066
0.000538572
0.000560628
0.000566539
0.000540705
0.000560348
0.000568553
0.000536655
0.000568744
0.00053484
0.000567809
0.000535135
0.000562293
0.000538152
0.000538372
0.000562063
0.000539932
0.000559919
0.000568608
0.000537634
0.000571046
0.00053816
0.000563014
0.000570341
0.000539748
0.000563019
0.000572134
0.000536382
0.000571711
0.000535117
0.000570943
0.000535484
0.000565716
0.000538387
0.000538153
0.000565899
0.000539783
0.000562781
0.000572408
0.0005373
0.000574155
0.000541259
0.000565819
0.000574652
0.000542028
0.000566125
0.000576161
0.000540244
0.00057478
0.000541044
0.000574247
0.000541814
0.000569572
0.000542732
0.000542155
0.000570094
0.000542965
0.000566115
0.000576622
0.000540823
0.000602164
0.00207256
0.000604996
0.000580292
0.00206147
0.000603061
0.000582366
0.0020113
0.000596035
0.00209451
0.000595354
0.00218699
0.000593375
0.00231437
0.001799
0.000608108
0.00197621
0.000610429
0.000581399
0.00195748
0.000647524
0.000637884
0.000633092
0.000631336
0.0006308
0.000630588
0.000630327
0.000630186
0.000629639
0.000626068
0.000620696
0.000623168
0.00063195
0.000637446
0.0006374
0.000634894
0.000632648
0.000631317
0.000630779
0.000634183
0.000618461
0.00060851
0.00060421
0.00060266
0.000602154
0.000602017
0.000602051
0.000602545
0.000603032
0.000599595
0.000598385
0.000609466
0.000620776
0.000623664
0.000620743
0.000616718
0.00061327
0.000610401
0.000608055
0.000608757
0.000593434
0.000584082
0.000580886
0.000579962
0.000579793
0.000579879
0.000580182
0.000581018
0.000582186
0.000578617
0.000583518
0.000599676
0.000607118
0.000605924
0.000601579
0.000597138
0.000593064
0.000589507
0.000586566
0.000586259
0.000575212
0.000566745
0.000564312
0.000563713
0.000563679
0.000563858
0.000564294
0.000565291
0.000567826
0.000564677
0.000577035
0.000595033
0.000597022
0.000592546
0.000586623
0.000581513
0.000577175
0.000573628
0.000570689
0.000569931
0.000561828
0.000554371
0.000552417
0.000551942
0.000551908
0.000552047
0.000552438
0.000553386
0.000557676
0.000555563
0.000575219
0.000590926
0.000587261
0.000580275
0.000573451
0.000568609
0.00056471
0.000561594
0.000558907
0.000557989
0.000552264
0.000545762
0.000544057
0.000543507
0.000543363
0.000543399
0.000543661
0.000544489
0.00055074
0.000550222
0.000573916
0.000587195
0.000578487
0.000569499
0.000562746
0.000558759
0.000555481
0.000552847
0.000550458
0.000549507
0.000545406
0.00053976
0.000538193
0.000537433
0.000537104
0.000537003
0.000537091
0.000537811
0.000545671
0.000547142
0.000566591
0.000581787
0.000569844
0.000560507
0.000554601
0.000551486
0.000548718
0.000546496
0.000544393
0.000543469
0.000540601
0.000535705
0.000534211
0.000533204
0.000532589
0.000532275
0.000532089
0.000532632
0.000541422
0.000545856
0.000567893
0.000580607
0.000562327
0.000553147
0.000548423
0.00054606
0.000543764
0.000541916
0.000540109
0.00053925
0.000537342
0.000533066
0.000531617
0.000530407
0.000529482
0.000528897
0.000528468
0.000528905
0.000540351
0.000547575
0.000568103
0.000572558
0.000554568
0.000547407
0.000543947
0.000542089
0.000540203
0.000538671
0.000537148
0.000536375
0.000535139
0.000531388
0.000529987
0.000528642
0.000527483
0.000526551
0.000525886
0.000526201
0.000541193
0.000550121
0.000568132
0.000568214
0.000549091
0.000543166
0.000540634
0.000539116
0.000537596
0.000536345
0.000535099
0.000534414
0.000533721
0.000530402
0.000529087
0.00052768
0.000526364
0.000525104
0.000524157
0.000524233
0.000540244
0.000551564
0.000568858
0.000565244
0.000544665
0.000539861
0.000538107
0.000536873
0.000535695
0.000534707
0.000533727
0.000533123
0.000532886
0.00052991
0.000528723
0.000527307
0.0005259
0.000524449
0.000523264
0.000523015
0.000537937
0.000551024
0.000571143
0.000563099
0.000541371
0.000537379
0.000536209
0.000535214
0.000534345
0.000533603
0.000532863
0.000532322
0.000532499
0.000529782
0.00052875
0.00052737
0.000525922
0.000524381
0.000523035
0.000522387
0.000538511
0.000554691
0.000569425
0.000565341
0.000538517
0.000535327
0.00053472
0.000533998
0.000533424
0.000532906
0.000532388
0.000531888
0.000532454
0.000529918
0.000529065
0.000527757
0.000526328
0.000524793
0.000523388
0.000522444
0.000539533
0.000559004
0.00057155
0.000565313
0.000536295
0.000533782
0.000533647
0.000533186
0.000532855
0.000532529
0.000532221
0.00053173
0.000532677
0.000530246
0.000529599
0.000528368
0.000527016
0.000525559
0.000524202
0.00052312
0.000541116
0.00056368
0.00057232
0.000564226
0.000534725
0.000532566
0.00053289
0.00053269
0.000532548
0.0005324
0.000532297
0.00053178
0.000533116
0.000530713
0.0005303
0.000529137
0.000527895
0.000526565
0.000525384
0.000524239
0.00054203
0.000570094
0.00057614
0.000552285
0.000533732
0.000531782
0.00053244
0.000532472
0.000532453
0.000532471
0.000532569
0.000531983
0.000533731
0.000531277
0.000531129
0.000530025
0.000528907
0.000527713
0.000526833
0.000525274
0.000528357
0.000558707
0.000566232
0.00053396
0.000533022
0.000531348
0.00053223
0.000532468
0.000532527
0.000532702
0.000533005
0.000532297
0.000534494
0.000531908
0.000532059
0.000530997
0.000529999
0.000528921
0.000528389
0.000526601
0.000527972
0.000529718
0.000538705
0.000530478
0.000532815
0.000531218
0.00053222
0.00053265
0.00053274
0.000533068
0.000533584
0.000532694
0.000535383
0.000532584
0.000533071
0.000532038
0.000531143
0.000530165
0.000529989
0.000527861
0.000529711
0.000528243
0.000533794
0.000530058
0.000532968
0.000531267
0.000532363
0.000532985
0.000533063
0.000533548
0.000534289
0.00053315
0.000536384
0.000533286
0.000534147
0.000533134
0.000532315
0.000531424
0.000531607
0.000529032
0.000531549
0.000528783
0.000533882
0.000530152
0.000533396
0.000531451
0.00053263
0.000533451
0.000533475
0.000534128
0.00053511
0.000533647
0.000537489
0.000534003
0.00053528
0.00053428
0.000533497
0.000532694
0.000533244
0.000530098
0.000533354
0.000529416
0.000534781
0.000530355
0.000534023
0.000531726
0.000532991
0.000534033
0.000533958
0.000534798
0.000536042
0.000534171
0.000538691
0.00053472
0.000536463
0.000535476
0.000534674
0.000533973
0.000534898
0.000531075
0.000535159
0.000529998
0.000535942
0.000530619
0.000534818
0.000532068
0.000533427
0.000534723
0.000534498
0.000535553
0.00053708
0.00053471
0.000539986
0.000535429
0.000537692
0.000536725
0.000535832
0.000535265
0.000536578
0.000531971
0.000536974
0.000530528
0.000537281
0.000530898
0.000535755
0.000532458
0.000533916
0.000535517
0.00053508
0.000536392
0.000538223
0.000535252
0.000541375
0.000536121
0.000538965
0.000538036
0.000536962
0.000536584
0.000538294
0.000532793
0.000538824
0.000531003
0.000538762
0.000531184
0.000536817
0.000532886
0.000534446
0.000536415
0.000535691
0.000537315
0.000539474
0.000535791
0.000542854
0.000536788
0.000540282
0.000539418
0.000538048
0.000537932
0.000540055
0.000533544
0.000540723
0.000531427
0.000540367
0.000531467
0.000537994
0.000533342
0.000534998
0.000537417
0.000536318
0.000538325
0.000540833
0.000536313
0.000544429
0.000537422
0.000541643
0.000540881
0.000539082
0.000539327
0.000541873
0.000534235
0.000542679
0.000531804
0.000542087
0.000531747
0.000539286
0.000533821
0.000535564
0.000538535
0.000536952
0.00053943
0.000542309
0.000536815
0.0005461
0.000538015
0.000543049
0.000542439
0.000540046
0.000540774
0.000543754
0.00053486
0.000544699
0.000532139
0.000543917
0.000532027
0.000540685
0.000534315
0.000536129
0.000539777
0.000537581
0.000540633
0.00054391
0.000537287
0.000547865
0.000538556
0.000544504
0.000544103
0.000540919
0.000542286
0.000545712
0.000535427
0.000546796
0.000532452
0.000545861
0.000532317
0.000542199
0.00053482
0.00053668
0.000541152
0.000538193
0.000541944
0.000545638
0.000537712
0.000549733
0.000539036
0.000546015
0.000545894
0.000541692
0.000543881
0.000547763
0.000535935
0.000548969
0.000532758
0.000547912
0.000532628
0.000543837
0.000535331
0.000537209
0.00054268
0.000538778
0.000543375
0.000547509
0.000538091
0.000551708
0.000539444
0.000547584
0.000547828
0.000542342
0.000545564
0.000549911
0.000536376
0.000551227
0.000533076
0.000550077
0.000532968
0.000545601
0.000535841
0.000537701
0.000544374
0.000539324
0.00054493
0.000549533
0.000538411
0.000553787
0.000539767
0.000549229
0.000549928
0.000542841
0.000547355
0.000552186
0.000536745
0.000553576
0.000533405
0.000552362
0.000533333
0.000547508
0.000536348
0.000538144
0.000546248
0.000539814
0.00054663
0.000551727
0.000538653
0.000555982
0.000540004
0.000550951
0.000552209
0.000543182
0.000549262
0.000554592
0.000537054
0.000556007
0.000533761
0.000554755
0.000533735
0.00054957
0.000536844
0.000538535
0.00054833
0.000540246
0.000548478
0.000554101
0.000538831
0.0005583
0.000540108
0.000552766
0.000554708
0.000543308
0.0005513
0.000557162
0.000537256
0.000558537
0.000534096
0.000557275
0.000534126
0.000551808
0.000537309
0.000538834
0.000550637
0.000540568
0.000550496
0.000556689
0.000538899
0.000560738
0.000540145
0.000554668
0.000557417
0.000543259
0.000553462
0.000559886
0.000537428
0.00056116
0.000534498
0.000559918
0.000534587
0.000554234
0.00053776
0.000539083
0.000553196
0.000540842
0.000552672
0.000559471
0.000538917
0.000563303
0.000539931
0.000556715
0.000560415
0.000542852
0.000555801
0.000562848
0.000537399
0.000563875
0.000534788
0.000562685
0.000534947
0.000556885
0.000538115
0.000539166
0.000556022
0.000540882
0.000555071
0.000562534
0.000538748
0.000566023
0.000539779
0.00055885
0.000563654
0.000542373
0.000558237
0.000565974
0.000537421
0.00056669
0.000535205
0.000565588
0.000535435
0.000559777
0.000538495
0.000539243
0.00055919
0.000540987
0.000557614
0.000565817
0.000538621
0.00056885
0.000539082
0.000561187
0.000567279
0.000541219
0.00056092
0.000569443
0.000537045
0.000569589
0.000535363
0.000568621
0.000535676
0.000562973
0.000538615
0.000539006
0.000562639
0.000540556
0.000560422
0.000569453
0.000538133
0.000571895
0.000538795
0.000563638
0.000571158
0.000540361
0.000563667
0.000573094
0.000536906
0.000572616
0.000535786
0.000571822
0.000536171
0.00056648
0.000538968
0.000538919
0.000566572
0.000540537
0.000563367
0.000573328
0.000537934
0.000575084
0.000542021
0.000566529
0.000575554
0.000542724
0.000566874
0.000577194
0.000540903
0.000575755
0.000542126
0.000575208
0.000542939
0.000570442
0.000543444
0.00054308
0.000570888
0.000543848
0.000566808
0.000577618
0.000541595
0.000604047
0.00206328
0.000607026
0.000581177
0.00205139
0.000604903
0.000583377
0.00199977
0.000597878
0.00208489
0.000597209
0.00217998
0.000595036
0.00230953
0.00178683
0.000609678
0.00196471
0.000612435
0.000582511
0.00194511
0.000659796
0.000650149
0.000644995
0.000642991
0.000642382
0.000642202
0.000642029
0.000642021
0.000641702
0.000638332
0.000632655
0.000634523
0.000643753
0.000650424
0.000650925
0.00064811
0.000645255
0.000643422
0.000642556
0.0006456
0.000628194
0.000617968
0.000613243
0.000611474
0.000610927
0.000610849
0.000611008
0.000611702
0.000612544
0.000609371
0.000607863
0.00061908
0.000631831
0.000635759
0.0006327
0.000627978
0.000623846
0.000620428
0.000617633
0.000617872
0.000600728
0.000590985
0.000587482
0.000586472
0.000586351
0.000586554
0.00058703
0.000588128
0.000589804
0.000586543
0.000591398
0.000608555