/*--------------------------------*- C++ -*----------------------------------*\
| =========                 |                                                 |
| \\      /  F ield         | OpenFOAM: The Open Source CFD Toolbox           |
|  \\    /   O peration     | Version:  2.4.0                                 |
|   \\  /    A nd           | Web:      www.OpenFOAM.org                      |
|    \\/     M anipulation  |                                                 |
\*---------------------------------------------------------------------------*/
FoamFile
{
    version     2.0;
    format      ascii;
    class       volScalarField;
    location    "20";
    object      k;
}
// * * * * * * * * * * * * * * * * * * * * * * * * * * * * * * * * * * * * * //

dimensions      [0 2 -2 0 0 0 0];

internalField   nonuniform List<scalar> 
283312
(
0.000348612
0.000346209
0.000345084
0.000344808
0.000344872
0.00034499
0.000345065
0.00034523
0.000345505
0.000345008
0.000343442
0.000343756
0.000347104
0.00035029
0.000350804
0.000349186
0.000347162
0.000345757
0.000345133
0.000345924
0.000338287
0.000335575
0.000334441
0.000334114
0.000334095
0.00033418
0.000334337
0.000334769
0.000335622
0.000335443
0.000335226
0.000339009
0.000344176
0.000346052
0.0003444
0.00034168
0.00033945
0.000337903
0.000336817
0.000336739
0.000328482
0.000325833
0.000325001
0.000324852
0.000324934
0.00032511
0.000325404
0.000326071
0.000327646
0.00032799
0.000330259
0.000336742
0.000340325
0.000339107
0.00033604
0.000333301
0.000331183
0.000329477
0.000328082
0.000327604
0.000320857
0.000318467
0.000317885
0.000317854
0.000318002
0.000318244
0.000318634
0.000319441
0.000322246
0.000323575
0.000329119
0.000337076
0.000337629
0.000333836
0.000329729
0.000326604
0.000324256
0.00032243
0.000320968
0.000320363
0.000315136
0.000313064
0.000312621
0.000312633
0.000312797
0.000313043
0.000313441
0.000314278
0.000318852
0.000321541
0.000330341
0.000337528
0.000334233
0.000328398
0.000323656
0.000320572
0.000318417
0.000316794
0.000315472
0.000314889
0.000310991
0.000309221
0.000308826
0.000308801
0.000308937
0.000309148
0.000309509
0.000310294
0.000316767
0.000320903
0.000331008
0.000337175
0.000330551
0.000323112
0.000318306
0.00031569
0.000313918
0.00031257
0.000311425
0.000310904
0.000308012
0.0003065
0.000306116
0.000305994
0.000306062
0.000306218
0.000306514
0.000307211
0.000315271
0.00032082
0.000326599
0.000334112
0.00032586
0.000318156
0.000314006
0.000312001
0.000310574
0.000309464
0.000308486
0.000308036
0.000305912
0.000304617
0.000304228
0.000303988
0.000303937
0.000304009
0.000304191
0.00030477
0.000314035
0.000321338
0.000327211
0.00033482
0.000321965
0.000314015
0.000310716
0.000309247
0.000308107
0.000307201
0.000306384
0.000306004
0.000304473
0.000303348
0.000302955
0.000302612
0.000302423
0.000302382
0.000302455
0.000302971
0.000314904
0.000323407
0.000327157
0.000330349
0.000316849
0.000310585
0.0003083
0.000307227
0.000306318
0.000305582
0.000304913
0.000304594
0.000303489
0.000302499
0.000302107
0.000301693
0.000301392
0.000301199
0.000301163
0.000301622
0.000316889
0.000325599
0.0003272
0.000328465
0.000313198
0.000308139
0.000306539
0.000305719
0.000304998
0.000304408
0.000303879
0.000303612
0.000302836
0.000301955
0.000301579
0.000301133
0.000300746
0.000300404
0.000300231
0.000300576
0.000316642
0.000326189
0.000327724
0.000327839
0.000310308
0.000306302
0.000305209
0.000304575
0.000304021
0.000303565
0.000303168
0.000302941
0.000302428
0.000301627
0.000301284
0.000300827
0.000300393
0.000299942
0.000299656
0.000299833
0.00031469
0.000325349
0.000329659
0.000327652
0.000308089
0.000304937
0.000304204
0.000303715
0.000303313
0.000302981
0.000302698
0.000302497
0.000302205
0.000301461
0.000301162
0.000300708
0.000300255
0.00029974
0.000299366
0.000299363
0.000315247
0.000327081
0.000328167
0.000330951
0.000306244
0.00030384
0.000303416
0.000303072
0.000302819
0.000302594
0.000302409
0.00030222
0.000302121
0.000301412
0.000301167
0.000300726
0.000300278
0.000299748
0.000299333
0.000299174
0.000315891
0.000329067
0.000330204
0.000332233
0.000304716
0.000303008
0.000302836
0.000302625
0.0003025
0.000302356
0.00030226
0.000302069
0.000302145
0.000301448
0.000301268
0.000300841
0.00030042
0.0002999
0.000299507
0.000299241
0.000316594
0.000330767
0.000331424
0.000332007
0.00030358
0.000302367
0.000302424
0.000302336
0.00030231
0.000302231
0.000302218
0.000302013
0.000302255
0.000301548
0.000301443
0.000301027
0.000300647
0.000300152
0.000299829
0.000299498
0.000316111
0.000337097
0.000336687
0.000322078
0.000302863
0.000301936
0.000302173
0.000302182
0.00030222
0.000302194
0.000302261
0.000302027
0.000302432
0.000301695
0.000301674
0.000301267
0.000300934
0.000300467
0.000300259
0.000299624
0.000302288
0.000329429
0.000332065
0.000305175
0.000302333
0.00030168
0.000302047
0.000302124
0.000302206
0.000302225
0.000302373
0.000302091
0.000302666
0.000301875
0.00030195
0.000301547
0.000301263
0.000300816
0.000300743
0.000299988
0.00030067
0.000302203
0.000308147
0.000301435
0.000302151
0.00030158
0.000302015
0.000302145
0.000302255
0.000302312
0.000302542
0.000302194
0.000302944
0.000302079
0.000302261
0.000301859
0.000301622
0.000301191
0.000301255
0.000300368
0.000301109
0.000300323
0.000302841
0.000300991
0.000302176
0.00030157
0.000302051
0.000302229
0.000302352
0.000302445
0.000302761
0.000302325
0.000303262
0.0003023
0.000302599
0.000302199
0.000301999
0.000301581
0.000301784
0.000300737
0.000301715
0.000300473
0.000302429
0.000301009
0.000302321
0.000301623
0.000302138
0.000302364
0.000302485
0.000302616
0.000303023
0.000302477
0.000303614
0.000302532
0.00030296
0.000302563
0.000302388
0.000301983
0.000302325
0.000301082
0.00030232
0.000300721
0.00030272
0.0003011
0.000302539
0.000301716
0.000302263
0.000302543
0.000302648
0.000302822
0.000303325
0.000302643
0.000304
0.000302771
0.000303342
0.000302951
0.00030278
0.000302395
0.000302875
0.000301406
0.000302924
0.000300951
0.000303129
0.000301217
0.000302813
0.000301838
0.000302417
0.000302761
0.000302834
0.000303059
0.000303665
0.00030282
0.000304416
0.000303012
0.000303741
0.000303362
0.000303171
0.000302819
0.000303437
0.000301709
0.000303529
0.000301162
0.000303591
0.000301341
0.00030313
0.000301979
0.000302591
0.000303015
0.000303036
0.000303327
0.000304042
0.000303002
0.000304864
0.000303253
0.000304158
0.0003038
0.000303556
0.000303256
0.000304013
0.000301993
0.000304141
0.000301353
0.00030409
0.000301467
0.000303487
0.000302138
0.000302778
0.000303306
0.00030325
0.000303625
0.000304456
0.000303188
0.000305342
0.000303491
0.000304591
0.000304268
0.00030393
0.000303709
0.000304604
0.000302259
0.000304766
0.000301528
0.000304621
0.000301594
0.000303877
0.000302309
0.000302975
0.000303632
0.000303471
0.000303955
0.000304908
0.000303372
0.000305852
0.000303721
0.000305041
0.000304768
0.000304289
0.000304183
0.000305216
0.000302509
0.000305407
0.000301688
0.000305184
0.000301721
0.000304301
0.000302492
0.000303177
0.000303998
0.000303695
0.000304317
0.000305399
0.000303553
0.000306396
0.000303943
0.000305509
0.000305305
0.000304628
0.000304679
0.000305851
0.000302743
0.000306065
0.000301835
0.000305778
0.00030185
0.000304757
0.000302683
0.000303381
0.000304405
0.00030392
0.000304716
0.000305934
0.000303728
0.000306973
0.000304151
0.000305997
0.000305883
0.000304939
0.000305201
0.000306515
0.00030296
0.000306748
0.000301978
0.000306407
0.000301984
0.000305247
0.000302881
0.000303582
0.000304858
0.000304143
0.000305154
0.000306515
0.000303891
0.000307587
0.000304342
0.000306507
0.00030651
0.000305221
0.000305758
0.000307213
0.000303163
0.000307457
0.00030212
0.000307069
0.000302127
0.000305776
0.000303084
0.000303779
0.000305364
0.000304361
0.000305635
0.000307147
0.000304043
0.000308239
0.000304515
0.000307044
0.000307191
0.000305467
0.000306351
0.000307948
0.000303347
0.000308195
0.000302273
0.000307769
0.000302285
0.000306347
0.000303291
0.000303969
0.000305927
0.00030457
0.000306164
0.000307834
0.00030418
0.000308931
0.000304662
0.000307613
0.000307935
0.000305666
0.000306988
0.000308734
0.000303511
0.000308968
0.000302431
0.000308514
0.000302452
0.000306966
0.000303501
0.000304146
0.000306553
0.000304765
0.000306748
0.000308584
0.000304294
0.000309668
0.000304791
0.000308215
0.000308747
0.000305822
0.000307673
0.000309569
0.000303664
0.000309773
0.00030261
0.000309299
0.000302643
0.000307641
0.000303715
0.000304318
0.000307255
0.000304953
0.000307389
0.000309403
0.000304398
0.000310455
0.000304871
0.000308862
0.000309642
0.000305905
0.000308415
0.000310472
0.000303776
0.000310621
0.000302777
0.000310136
0.000302822
0.000308382
0.000303919
0.000304461
0.00030804
0.000305101
0.000308104
0.000310306
0.000304462
0.000311292
0.000304954
0.000309544
0.000310611
0.000305951
0.000309201
0.00031143
0.0003039
0.000311511
0.000302992
0.000311027
0.000303051
0.000309196
0.000304132
0.000304608
0.00030892
0.00030526
0.000308878
0.000311281
0.000304532
0.000312185
0.000304933
0.000310295
0.000311687
0.000305858
0.00031007
0.000312485
0.000303941
0.000312448
0.000303151
0.000311979
0.000303227
0.000310107
0.000304311
0.000304702
0.000309909
0.000305325
0.000309754
0.000312366
0.000304524
0.000313141
0.000304983
0.000311069
0.000312839
0.000305792
0.000310962
0.000313592
0.000304042
0.000313434
0.000303399
0.000312996
0.000303492
0.00031112
0.000304531
0.000304821
0.000311029
0.000305464
0.000310672
0.000313528
0.000304572
0.000314154
0.000304801
0.000311952
0.000314137
0.000305437
0.000311978
0.000314832
0.00030397
0.00031447
0.000303515
0.000314086
0.00030363
0.00031227
0.000304643
0.000304847
0.000312273
0.000305375
0.000311728
0.000314827
0.000304456
0.000315243
0.000304852
0.000312838
0.000315503
0.000305306
0.000312979
0.00031612
0.000304052
0.000315563
0.000303802
0.000315251
0.000303937
0.000313544
0.000304898
0.000304936
0.00031368
0.00030552
0.000312787
0.000316193
0.000304514
0.000316466
0.000307309
0.00031403
0.000317075
0.000307422
0.000314284
0.000317584
0.000306832
0.000316758
0.000307893
0.000316561
0.000308259
0.000315058
0.000307926
0.000307867
0.000315336
0.000307949
0.000314191
0.000317726
0.0003071
0.00033199
0.000953397
0.000336658
0.000319218
0.000949662
0.000335693
0.000319807
0.000927306
0.000329107
0.000964599
0.000328829
0.00100769
0.000327945
0.00106163
0.000840057
0.000336315
0.000908171
0.0003396
0.000319749
0.000903691
0.00035293
0.000350535
0.000349338
0.000349018
0.000349088
0.000349244
0.000349372
0.000349602
0.000349978
0.000349634
0.000348104
0.000348176
0.00035145
0.000355018
0.000355933
0.000354339
0.000352049
0.000350344
0.000349517
0.000350143
0.000341858
0.00033906
0.000337813
0.000337434
0.00033742
0.000337542
0.000337759
0.000338281
0.000339297
0.000339342
0.000339124
0.000342784
0.000348323
0.000350728
0.000349182
0.000346184
0.000343614
0.000341809
0.000340537
0.000340275
0.000331216
0.000328442
0.000327526
0.000327363
0.000327475
0.000327707
0.000328081
0.000328868
0.000330707
0.000331368
0.000333638
0.000340283
0.000344434
0.000343391
0.000340055
0.000336957
0.000334544
0.000332601
0.000331004
0.000330331
0.000322915
0.000320396
0.000319777
0.000319765
0.000319963
0.000320273
0.000320755
0.000321703
0.00032492
0.000326689
0.000332324
0.000340779
0.000341779
0.000337735
0.000333142
0.000329596
0.00032693
0.000324853
0.000323194
0.000322414
0.000316695
0.000314508
0.000314059
0.000314113
0.000314337
0.000314653
0.000315147
0.000316129
0.000321331
0.000324589
0.000333632
0.000341506
0.000338246
0.000331797
0.000326445
0.000322931
0.000320486
0.000318651
0.000317165
0.00031644
0.000312195
0.000310329
0.000309937
0.000309973
0.000310173
0.000310453
0.000310907
0.000311831
0.000319153
0.00032397
0.000334359
0.000341264
0.000334283
0.000325963
0.00032051
0.000317521
0.00031552
0.000314008
0.000312733
0.0003121
0.000308971
0.00030738
0.000306996
0.000306937
0.000307075
0.0003073
0.00030768
0.000308506
0.000317589
0.000323932
0.000329589
0.000337863
0.000329092
0.000320442
0.000315726
0.000313441
0.000311842
0.000310605
0.000309525
0.000308987
0.000306695
0.000305335
0.000304944
0.000304747
0.00030477
0.000304917
0.000305175
0.000305864
0.000316298
0.000324506
0.000330211
0.00033874
0.00032482
0.000315823
0.00031207
0.000310401
0.000309133
0.000308129
0.000307231
0.000306781
0.000305133
0.000303951
0.000303555
0.000303233
0.000303105
0.000303151
0.000303293
0.00030391
0.000317324
0.000326803
0.000330165
0.000333926
0.000319097
0.000311975
0.000309383
0.000308173
0.000307166
0.000306354
0.000305622
0.000305248
0.00030406
0.000303022
0.000302624
0.000302216
0.00030195
0.000301842
0.000301877
0.000302435
0.000319541
0.000329217
0.000330232
0.000331898
0.000314993
0.000309236
0.000307428
0.00030651
0.000305714
0.000305065
0.000304488
0.000304177
0.000303344
0.00030242
0.000302036
0.000301587
0.000301216
0.000300927
0.000300827
0.000301279
0.000319246
0.000329806
0.00033081
0.000331266
0.000311745
0.000307186
0.000305952
0.000305248
0.000304636
0.000304136
0.000303705
0.000303442
0.000302889
0.00030205
0.000301699
0.000301234
0.000300803
0.000300373
0.000300134
0.000300435
0.000317064
0.000328851
0.000333009
0.000331121
0.000309242
0.000305663
0.000304834
0.000304295
0.000303851
0.000303488
0.000303181
0.00030295
0.000302631
0.000301852
0.000301545
0.000301079
0.000300624
0.000300109
0.000299757
0.000299856
0.000317649
0.000330692
0.000331288
0.000334817
0.000307167
0.000304442
0.000303958
0.000303578
0.000303299
0.000303053
0.000302852
0.000302637
0.000302521
0.000301779
0.000301528
0.000301073
0.000300619
0.000300077
0.000299667
0.000299559
0.000318292
0.000332795
0.000333626
0.000336304
0.000305437
0.000303512
0.000303308
0.000303075
0.000302936
0.000302778
0.000302673
0.000302458
0.000302526
0.000301797
0.000301612
0.000301171
0.000300742
0.000300204
0.000299809
0.000299554
0.000318954
0.00033456
0.000334981
0.000336078
0.000304139
0.000302795
0.000302843
0.000302744
0.000302714
0.000302623
0.000302608
0.000302379
0.00030262
0.000301883
0.000301774
0.000301343
0.000300957
0.00030044
0.000300113
0.000299774
0.000318282
0.000341731
0.000341069
0.000324948
0.000303315
0.000302308
0.000302553
0.000302557
0.000302599
0.000302563
0.000302634
0.000302375
0.000302786
0.000302017
0.000301997
0.000301573
0.000301237
0.000300743
0.000300536
0.000299867
0.000302691
0.000333039
0.000335974
0.000305926
0.000302696
0.000302012
0.000302401
0.000302475
0.000302566
0.000302576
0.000302732
0.000302425
0.00030301
0.000302187
0.000302265
0.000301845
0.00030156
0.000301085
0.000301019
0.000300221
0.000300925
0.000302443
0.000309047
0.000301718
0.000302473
0.000301888
0.00030235
0.000302478
0.0003026
0.000302648
0.00030289
0.000302516
0.000303282
0.000302382
0.00030257
0.000302152
0.000301915
0.000301455
0.000301533
0.000300595
0.000301362
0.000300489
0.00030316
0.000301217
0.000302481
0.000301861
0.000302372
0.000302547
0.000302685
0.000302768
0.0003031
0.000302635
0.000303593
0.000302596
0.000302903
0.000302487
0.000302291
0.000301842
0.000302065
0.000300962
0.000301977
0.000300652
0.000302694
0.000301229
0.000302619
0.000301903
0.00030245
0.000302671
0.00030281
0.000302928
0.000303356
0.000302777
0.000303941
0.000302822
0.00030326
0.000302847
0.000302679
0.000302241
0.000302611
0.000301306
0.000302591
0.000300909
0.00030299
0.00030132
0.000302833
0.000301987
0.000302567
0.00030284
0.000302965
0.000303124
0.000303653
0.000302935
0.000304323
0.000303055
0.000303638
0.000303232
0.00030307
0.000302651
0.000303167
0.000301629
0.000303205
0.000301144
0.000303408
0.000301436
0.000303106
0.000302103
0.000302715
0.00030305
0.000303145
0.000303353
0.00030399
0.000303104
0.000304736
0.00030329
0.000304034
0.000303641
0.000303461
0.000303072
0.000303734
0.00030193
0.000303819
0.000301358
0.000303878
0.000301558
0.000303423
0.000302239
0.000302884
0.000303298
0.000303342
0.000303613
0.000304365
0.000303279
0.000305182
0.000303526
0.000304447
0.000304078
0.000303845
0.000303508
0.000304315
0.000302213
0.000304438
0.00030155
0.000304383
0.000301683
0.000303781
0.000302394
0.000303068
0.000303583
0.000303552
0.000303904
0.000304777
0.000303458
0.000305658
0.000303759
0.000304878
0.000304546
0.000304218
0.000303961
0.000304912
0.000302476
0.00030507
0.000301724
0.000304921
0.000301808
0.000304172
0.000302562
0.000303262
0.000303904
0.000303769
0.000304228
0.000305229
0.000303636
0.000306169
0.000303985
0.000305327
0.000305047
0.000304577
0.000304434
0.000305531
0.000302724
0.000305718
0.000301883
0.00030549
0.000301933
0.000304598
0.000302743
0.000303463
0.000304267
0.000303991
0.000304586
0.000305722
0.000303811
0.000306713
0.000304204
0.000305793
0.000305586
0.000304915
0.000304931
0.000306173
0.000302956
0.000306384
0.000302029
0.00030609
0.00030206
0.000305055
0.000302933
0.000303666
0.000304672
0.000304214
0.00030498
0.000306259
0.000303982
0.000307292
0.000304409
0.00030628
0.000306168
0.000305227
0.000305455
0.000306844
0.000303172
0.000307073
0.000302171
0.000306725
0.000302194
0.000305548
0.000303131
0.000303868
0.000305124
0.000304436
0.000305415
0.000306844
0.000304142
0.000307908
0.0003046
0.000306791
0.000306802
0.000305509
0.000306015
0.000307551
0.000303374
0.000307789
0.000302316
0.000307393
0.00030234
0.00030608
0.000303336
0.000304067
0.000305629
0.000304655
0.000305895
0.000307481
0.000304292
0.000308564
0.000304773
0.000307329
0.000307491
0.000305756
0.000306613
0.000308296
0.000303559
0.000308535
0.000302473
0.0003081
0.000302503
0.000306655
0.000303546
0.00030426
0.000306194
0.000304867
0.000306425
0.000308174
0.000304428
0.000309263
0.000304923
0.000307902
0.000308246
0.000305957
0.000307257
0.000309094
0.000303725
0.000309316
0.00030264
0.000308852
0.000302679
0.00030728
0.000303761
0.000304444
0.000306824
0.000305067
0.000307011
0.000308934
0.000304545
0.000310007
0.000305056
0.00030851
0.000309071
0.000306117
0.00030795
0.000309943
0.000303883
0.00031013
0.000302832
0.000309646
0.000302882
0.00030796
0.000303982
0.000304625
0.000307531
0.000305261
0.000307657
0.000309764
0.000304653
0.000310804
0.000305145
0.000309166
0.000309981
0.000306207
0.000308705
0.000310863
0.000304005
0.000310989
0.000303018
0.000310494
0.00030308
0.00030871
0.000304198
0.000304782
0.000308325
0.000305422
0.000308381
0.000310682
0.000304728
0.000311653
0.00030524
0.000309858
0.000310969
0.000306261
0.000309506
0.000311838
0.000304142
0.000311892
0.000303255
0.000311397
0.000303329
0.000309535
0.000304423
0.000304945
0.000309218
0.000305594
0.000309166
0.000311674
0.000304812
0.000312562
0.000305238
0.000310624
0.000312066
0.000306182
0.000310395
0.000312915
0.000304204
0.000312845
0.000303446
0.000312365
0.000303534
0.000310461
0.000304623
0.000305063
0.000310224
0.000305681
0.000310061
0.000312779
0.000304825
0.000313536
0.000305311
0.000311414
0.000313242
0.000306132
0.000311306
0.000314044
0.000304328
0.000313849
0.000303726
0.0003134
0.000303829
0.000311491
0.000304862
0.000305207
0.000311364
0.000305844
0.000310998
0.000313963
0.000304898
0.00031457
0.000305165
0.000312319
0.000314566
0.000305806
0.00031235
0.00031531
0.000304294
0.000314906
0.000303888
0.000314512
0.00030401
0.000312666
0.000305007
0.000305275
0.000312638
0.000305794
0.000312083
0.000315288
0.000304822
0.000315683
0.000305253
0.000313227
0.000315957
0.000305704
0.000313375
0.000316622
0.000304416
0.00031602
0.000304222
0.000315702
0.00030436
0.000313969
0.00030529
0.000305403
0.000314077
0.000305977
0.00031317
0.00031668
0.00030492
0.000316938
0.000307725
0.000314455
0.000317559
0.000307821
0.000314721
0.000318112
0.000307214
0.000317244
0.000308474
0.000317048
0.000308851
0.000315528
0.000308328
0.000308369
0.00031578
0.000308423
0.000314618
0.000318241
0.000307528
0.000333028
0.000946647
0.0003379
0.000319736
0.000942565
0.000336817
0.000320347
0.000919579
0.000330144
0.000957345
0.000329898
0.00100133
0.000328995
0.00105638
0.000832747
0.000337222
0.000900494
0.000340809
0.000320334
0.000895835
0.000357509
0.000355122
0.00035385
0.000353477
0.000353548
0.000353741
0.000353924
0.00035422
0.000354697
0.000354522
0.00035308
0.00035295
0.000356113
0.000360043
0.000361417
0.000359907
0.000357347
0.000355295
0.000354217
0.000354649
0.000345628
0.000342739
0.000341367
0.000340926
0.000340912
0.000341073
0.000341355
0.000341969
0.000343154
0.000343455
0.000343292
0.000346828
0.000352708
0.000355693
0.000354319
0.000351045
0.000348091
0.000345986
0.000344498
0.000344032
0.000334082
0.000331175
0.000330164
0.000329981
0.000330123
0.000330414
0.000330874
0.000331787
0.000333903
0.000334937
0.000337249
0.000344026
0.000348766
0.000347961
0.00034436
0.000340865
0.000338123
0.000335913
0.00033409
0.000333204
0.000325056
0.000322403
0.00032174
0.000321744
0.000321993
0.000322376
0.000322959
0.000324055
0.00032771
0.000329994
0.000335731
0.000344659
0.000346169
0.000341901
0.000336786
0.000332776
0.000329757
0.000327405
0.000325527
0.000324557
0.000318308
0.000316002
0.000315548
0.000315642
0.000315926
0.000316318
0.000316914
0.000318049
0.000323923
0.00032784
0.000337104
0.000345675
0.000342513
0.000335427
0.00032941
0.000325421
0.000322658
0.000320591
0.000318927
0.000318049
0.000313439
0.000311475
0.000311088
0.000311184
0.000311448
0.000311802
0.000312354
0.000313427
0.000321659
0.000327248
0.000337872
0.000345556
0.000338258
0.000329004
0.000322842
0.000319443
0.000317194
0.000315503
0.000314089
0.000313338
0.00030996
0.000308289
0.000307909
0.000307917
0.000308123
0.000308418
0.000308889
0.000309849
0.00032003
0.000327254
0.000332723
0.000341783
0.000332529
0.00032287
0.000317538
0.000314944
0.000313162
0.000311789
0.0003106
0.00030997
0.000307508
0.00030608
0.000305689
0.000305545
0.000305644
0.000305859
0.000306196
0.000307002
0.000318685
0.00032788
0.000333337
0.000342846
0.000327863
0.00031774
0.00031349
0.000311603
0.0003102
0.000309091
0.000308109
0.000307586
0.00030582
0.000304582
0.000304183
0.000303889
0.000303832
0.000303955
0.000304167
0.000304889
0.000319885
0.000330417
0.000333293
0.00033769
0.000321495
0.000313442
0.000310515
0.000309158
0.000308048
0.000307156
0.000306359
0.000305927
0.000304658
0.000303572
0.000303169
0.000302771
0.000302548
0.000302528
0.000302631
0.000303286
0.000322354
0.000333066
0.000333387
0.000335521
0.000316907
0.000310391
0.000308356
0.000307335
0.00030646
0.00030575
0.000305124
0.000304767
0.000303878
0.000302913
0.000302522
0.000302074
0.000301721
0.000301497
0.00030147
0.00030202
0.000322008
0.000333649
0.000334021
0.000334895
0.000313278
0.000308116
0.000306729
0.00030595
0.000305279
0.000304734
0.000304268
0.000303968
0.000303378
0.000302502
0.000302142
0.000301672
0.000301248
0.000300846
0.000300664
0.00030108
0.000319586
0.000332573
0.000336515
0.000334809
0.000310473
0.000306427
0.000305495
0.000304903
0.000304417
0.000304022
0.000303691
0.000303429
0.000303086
0.000302273
0.000301959
0.000301484
0.000301027
0.000300516
0.000300191
0.000300403
0.000320206
0.000334533
0.00033454
0.000338933
0.000308157
0.000305079
0.000304528
0.000304113
0.000303807
0.000303539
0.000303323
0.000303081
0.000302952
0.000302177
0.000301919
0.000301455
0.000300994
0.000300445
0.00030004
0.000299997
0.000320858
0.000336766
0.000337219
0.000340656
0.000306212
0.000304049
0.000303807
0.000303554
0.000303401
0.000303228
0.000303114
0.000302876
0.000302938
0.000302178
0.000301988
0.000301535
0.000301099
0.000300546
0.000300149
0.000299911
0.000321478
0.000338587
0.000338719
0.000340438
0.000304741
0.000303255
0.000303289
0.000303181
0.000303146
0.000303045
0.000303028
0.000302777
0.000303018
0.00030225
0.000302138
0.000301695
0.000301302
0.000300766
0.000300435
0.000300091
0.000320592
0.000346684
0.000345743
0.000328034
0.000303802
0.00030271
0.00030296
0.000302963
0.000303007
0.000302963
0.000303036
0.000302756
0.000303173
0.000302374
0.000302352
0.000301916
0.000301574
0.00030106
0.000300849
0.000300152
0.000303126
0.000336881
0.000340158
0.000306744
0.000303085
0.000302375
0.000302782
0.000302858
0.000302956
0.000302959
0.000303121
0.000302792
0.000303388
0.000302535
0.000302613
0.000302181
0.000301893
0.000301395
0.00030133
0.000300496
0.000301215
0.000302706
0.000309996
0.000302033
0.000302819
0.000302228
0.000302713
0.000302843
0.000302976
0.000303016
0.00030327
0.000302871
0.000303653
0.000302723
0.000302912
0.000302483
0.000302245
0.00030176
0.000301845
0.000300865
0.000301648
0.000300691
0.000303503
0.000301474
0.000302811
0.000302187
0.000302723
0.0003029
0.000303051
0.000303124
0.000303472
0.000302981
0.000303959
0.00030293
0.000303241
0.000302814
0.000302619
0.000302143
0.000302381
0.00030123
0.000302271
0.000300868
0.000302983
0.000301484
0.000302944
0.000302219
0.000302792
0.000303013
0.000303167
0.000303275
0.000303722
0.000303115
0.000304303
0.00030315
0.000303595
0.000303171
0.000303006
0.00030254
0.000302932
0.000301573
0.000302895
0.000301136
0.000303287
0.000301576
0.000303156
0.000302297
0.000302902
0.000303173
0.000303316
0.000303462
0.000304016
0.000303265
0.000304681
0.000303378
0.000303969
0.000303554
0.000303397
0.000302949
0.000303493
0.000301895
0.000303518
0.000301378
0.000303714
0.000301694
0.000303428
0.000302407
0.000303046
0.000303376
0.00030349
0.000303683
0.000304349
0.000303427
0.000305092
0.000303609
0.000304362
0.000303962
0.000303787
0.000303369
0.000304066
0.000302196
0.00030414
0.000301597
0.000304193
0.000301817
0.000303746
0.00030254
0.000303211
0.000303619
0.000303683
0.000303937
0.000304722
0.000303596
0.000305536
0.000303841
0.000304773
0.000304398
0.000304171
0.000303804
0.000304653
0.000302477
0.000304767
0.00030179
0.000304706
0.000301942
0.000304105
0.000302692
0.000303392
0.000303899
0.00030389
0.000304222
0.000305135
0.000303769
0.000306011
0.00030407
0.000305201
0.000304866
0.000304544
0.000304256
0.000305256
0.000302739
0.000305407
0.000301966
0.000305251
0.000302066
0.000304498
0.000302859
0.000303584
0.000304217
0.000304105
0.000304541
0.000305586
0.000303942
0.000306521
0.000304293
0.000305648
0.000305369
0.000304903
0.000304729
0.000305881
0.000302986
0.000306061
0.000302125
0.000305826
0.000302191
0.000304926
0.000303039
0.000303784
0.000304577
0.000304325
0.000304894
0.000306081
0.000304113
0.000307066
0.000304509
0.000306113
0.000305911
0.000305242
0.000305227
0.00030653
0.000303216
0.000306734
0.000302271
0.000306433
0.000302318
0.000305386
0.000303229
0.000303987
0.00030498
0.000304547
0.000305285
0.000306621
0.00030428
0.000307646
0.000304714
0.000306599
0.000306497
0.000305554
0.000305753
0.00030721
0.000303432
0.00030743
0.000302413
0.000307073
0.000302453
0.000305882
0.000303428
0.00030419
0.000305431
0.00030477
0.000305717
0.00030721
0.000304438
0.000308264
0.000304904
0.000307111
0.000307137
0.000305838
0.000306315
0.000307925
0.000303633
0.000308153
0.000302561
0.000307748
0.000302603
0.000306418
0.000303636
0.000304392
0.000305937
0.00030499
0.000306196
0.000307853
0.000304586
0.000308924
0.000305078
0.00030765
0.000307834
0.000306086
0.000306917
0.000308681
0.00030382
0.000308906
0.000302725
0.000308461
0.000302773
0.000306996
0.00030385
0.00030459
0.000306504
0.000305205
0.000306726
0.000308554
0.000304724
0.000309629
0.000305231
0.000308226
0.000308599
0.00030629
0.000307568
0.000309491
0.000303989
0.000309695
0.000302902
0.000309221
0.000302959
0.000307626
0.000304072
0.000304781
0.000307137
0.000305411
0.000307315
0.000309323
0.000304843
0.00031038
0.00030537
0.00030884
0.000309438
0.000306455
0.000308271
0.000310354
0.000304154
0.000310518
0.000303109
0.000310024
0.000303176
0.000308313
0.000304301
0.000304972
0.00030785
0.000305614
0.000307966
0.000310164
0.000304958
0.000311187
0.000305469
0.000309504
0.000310365
0.000306552
0.000309037
0.00031129
0.000304285
0.000311388
0.000303313
0.000310882
0.000303392
0.000309072
0.000304529
0.000305142
0.000308653
0.000305786
0.000308698
0.000311097
0.000305043
0.000312048
0.000305577
0.000310207
0.000311371
0.000306617
0.000309853
0.000312284
0.000304436
0.000312304
0.000303576
0.000311797
0.000303664
0.000309907
0.000304768
0.000305323
0.000309558
0.000305975
0.000309496
0.000312105
0.000305143
0.000312973
0.000305595
0.000310988
0.00031249
0.000306552
0.000310761
0.000313383
0.000304518
0.000313272
0.000303796
0.000312781
0.000303897
0.000310848
0.000304988
0.000305466
0.000310581
0.000306084
0.000310408
0.000313231
0.000305177
0.000313965
0.000305694
0.000311795
0.000313689
0.000306524
0.000311693
0.000314535
0.00030467
0.000314294
0.000304114
0.000313836
0.000304228
0.000311897
0.000305252
0.000305639
0.000311744
0.000306276
0.000311366
0.000314438
0.000305279
0.000315022
0.000305582
0.000312722
0.00031504
0.000306223
0.000312764
0.000315827
0.000304673
0.000315372
0.00030432
0.00031497
0.000304448
0.000313098
0.000305427
0.000305747
0.000313046
0.000306263
0.00031248
0.000315789
0.000305241
0.000316159
0.000305716
0.000313655
0.000316458
0.000306161
0.000313817
0.000317165
0.000304843
0.00031651
0.000304707
0.000316187
0.00030485
0.000314432
0.000305748
0.000305921
0.000314519
0.000306494
0.000313597
0.000317208
0.000305388
0.000317447
0.000308194
0.00031492
0.000318089
0.00030827
0.000315203
0.000318681
0.000307648
0.000317764
0.000309121
0.00031757
0.000309508
0.000316036
0.000308781
0.000308913
0.000316269
0.000308949
0.000315089
0.000318798
0.000308009
0.000334124
0.00093861
0.000339211
0.00032031
0.00093421
0.00033801
0.00032093
0.000910658
0.000331238
0.000948709
0.000331033
0.000993422
0.000330126
0.00104949
0.000824694
0.000338197
0.000891722
0.000342087
0.000320969
0.000886865
0.000362384
0.000360003
0.000358653
0.000358219
0.000358285
0.000358516
0.000358761
0.000359131
0.000359719
0.000359731
0.00035842
0.000358111
0.000361109
0.000365355
0.000367236
0.000365887
0.000363074
0.000360641
0.000359267
0.000359477
0.000349624
0.000346636
0.000345128
0.000344614
0.000344595
0.000344796
0.000345151
0.000345867
0.000347235
0.000347826
0.000347761
0.000351153
0.00035732
0.000360923
0.000359801
0.000356275
0.000352907
0.000350461
0.000348728
0.000348036
0.000337097
0.00033405
0.000332932
0.000332721
0.000332895
0.00033325
0.000333805
0.000334856
0.000337271
0.00033873
0.000341107