/*--------------------------------*- C++ -*----------------------------------*\
| =========                 |                                                 |
| \\      /  F ield         | OpenFOAM: The Open Source CFD Toolbox           |
|  \\    /   O peration     | Version:  2.4.0                                 |
|   \\  /    A nd           | Web:      www.OpenFOAM.org                      |
|    \\/     M anipulation  |                                                 |
\*---------------------------------------------------------------------------*/
FoamFile
{
    version     2.0;
    format      ascii;
    class       volScalarField;
    location    "20";
    object      nut;
}
// * * * * * * * * * * * * * * * * * * * * * * * * * * * * * * * * * * * * * //

dimensions      [0 2 -1 0 0 0 0];

internalField   nonuniform List<scalar> 
283312
(
1.74842e-05
1.751e-05
1.75125e-05
1.75229e-05
1.7542e-05
1.75621e-05
1.75815e-05
1.7609e-05
1.76638e-05
1.7723e-05
1.76961e-05
1.76265e-05
1.77463e-05
1.797e-05
1.80418e-05
1.79291e-05
1.77592e-05
1.76339e-05
1.75731e-05
1.75389e-05
1.7137e-05
1.71298e-05
1.71165e-05
1.7118e-05
1.71296e-05
1.71454e-05
1.71666e-05
1.72065e-05
1.72975e-05
1.73887e-05
1.73809e-05
1.74583e-05
1.77347e-05
1.78871e-05
1.77899e-05
1.75941e-05
1.74351e-05
1.73355e-05
1.72719e-05
1.7221e-05
1.67355e-05
1.67125e-05
1.67051e-05
1.67134e-05
1.673e-05
1.67516e-05
1.67816e-05
1.68388e-05
1.6992e-05
1.71435e-05
1.72279e-05
1.74772e-05
1.76964e-05
1.76055e-05
1.73843e-05
1.71971e-05
1.70669e-05
1.69681e-05
1.68876e-05
1.68252e-05
1.63911e-05
1.63676e-05
1.637e-05
1.63858e-05
1.64083e-05
1.64358e-05
1.64732e-05
1.65419e-05
1.67926e-05
1.70407e-05
1.72729e-05
1.76514e-05
1.76816e-05
1.73845e-05
1.70882e-05
1.68755e-05
1.6728e-05
1.66172e-05
1.65314e-05
1.64717e-05
1.61246e-05
1.61054e-05
1.61118e-05
1.61322e-05
1.61582e-05
1.61882e-05
1.62284e-05
1.63018e-05
1.66991e-05
1.70674e-05
1.74565e-05
1.78257e-05
1.75729e-05
1.71119e-05
1.67688e-05
1.6554e-05
1.64177e-05
1.63195e-05
1.62436e-05
1.61938e-05
1.59275e-05
1.59139e-05
1.59192e-05
1.594e-05
1.59671e-05
1.59975e-05
1.60377e-05
1.61088e-05
1.66605e-05
1.71453e-05
1.75681e-05
1.78946e-05
1.74016e-05
1.68144e-05
1.64633e-05
1.62785e-05
1.6169e-05
1.60891e-05
1.60257e-05
1.59859e-05
1.57854e-05
1.57757e-05
1.57786e-05
1.57941e-05
1.58207e-05
1.58504e-05
1.58887e-05
1.59536e-05
1.66346e-05
1.72223e-05
1.72848e-05
1.77029e-05
1.71139e-05
1.65068e-05
1.62063e-05
1.60664e-05
1.5982e-05
1.59178e-05
1.58656e-05
1.58347e-05
1.56833e-05
1.56762e-05
1.56765e-05
1.56844e-05
1.5706e-05
1.57346e-05
1.57686e-05
1.58262e-05
1.66131e-05
1.73133e-05
1.73176e-05
1.78129e-05
1.68818e-05
1.62452e-05
1.60079e-05
1.59074e-05
1.58423e-05
1.5791e-05
1.57489e-05
1.57249e-05
1.5611e-05
1.56053e-05
1.56036e-05
1.56046e-05
1.56177e-05
1.56431e-05
1.56727e-05
1.57277e-05
1.67354e-05
1.74929e-05
1.73063e-05
1.7532e-05
1.65191e-05
1.60189e-05
1.58595e-05
1.57896e-05
1.57389e-05
1.56982e-05
1.56648e-05
1.56462e-05
1.55596e-05
1.55544e-05
1.55511e-05
1.55469e-05
1.55522e-05
1.55688e-05
1.55943e-05
1.56484e-05
1.69268e-05
1.76616e-05
1.73109e-05
1.74345e-05
1.62583e-05
1.58607e-05
1.57518e-05
1.5701e-05
1.56612e-05
1.56291e-05
1.56039e-05
1.55892e-05
1.55231e-05
1.5518e-05
1.55138e-05
1.55066e-05
1.55054e-05
1.55115e-05
1.55289e-05
1.55799e-05
1.69167e-05
1.76786e-05
1.7347e-05
1.74378e-05
1.60541e-05
1.57443e-05
1.56701e-05
1.56325e-05
1.5602e-05
1.55777e-05
1.55598e-05
1.5548e-05
1.54974e-05
1.54918e-05
1.54874e-05
1.54785e-05
1.54734e-05
1.54702e-05
1.54789e-05
1.55211e-05
1.67533e-05
1.75928e-05
1.74942e-05
1.74666e-05
1.5894e-05
1.56575e-05
1.56071e-05
1.55792e-05
1.55573e-05
1.55401e-05
1.55282e-05
1.55179e-05
1.54795e-05
1.54732e-05
1.54692e-05
1.5459e-05
1.5452e-05
1.54423e-05
1.54438e-05
1.54727e-05
1.67867e-05
1.7672e-05
1.73691e-05
1.77627e-05
1.57639e-05
1.55888e-05
1.5557e-05
1.55378e-05
1.55244e-05
1.55128e-05
1.55056e-05
1.54961e-05
1.54675e-05
1.54601e-05
1.54568e-05
1.54458e-05
1.54382e-05
1.54252e-05
1.54221e-05
1.54372e-05
1.68131e-05
1.7761e-05
1.75297e-05
1.78982e-05
1.56517e-05
1.55351e-05
1.55185e-05
1.55069e-05
1.55011e-05
1.54931e-05
1.54899e-05
1.54803e-05
1.54597e-05
1.5451e-05
1.54489e-05
1.54372e-05
1.543e-05
1.54149e-05
1.54114e-05
1.54152e-05
1.68299e-05
1.7809e-05
1.76325e-05
1.78956e-05
1.55656e-05
1.54936e-05
1.549e-05
1.54847e-05
1.54847e-05
1.54788e-05
1.54791e-05
1.5469e-05
1.54552e-05
1.54451e-05
1.54445e-05
1.5432e-05
1.5426e-05
1.54095e-05
1.54077e-05
1.54044e-05
1.67364e-05
1.83193e-05
1.80992e-05
1.71083e-05
1.551e-05
1.54635e-05
1.54706e-05
1.54694e-05
1.54734e-05
1.54685e-05
1.54722e-05
1.54611e-05
1.54532e-05
1.54415e-05
1.54426e-05
1.54293e-05
1.54251e-05
1.54074e-05
1.54093e-05
1.53841e-05
1.55804e-05
1.774e-05
1.78267e-05
1.57444e-05
1.5467e-05
1.54433e-05
1.54586e-05
1.54589e-05
1.54659e-05
1.54614e-05
1.54681e-05
1.54556e-05
1.54531e-05
1.54397e-05
1.54426e-05
1.54286e-05
1.54265e-05
1.54076e-05
1.54143e-05
1.53826e-05
1.54144e-05
1.55225e-05
1.59236e-05
1.54321e-05
1.54485e-05
1.54322e-05
1.54515e-05
1.5452e-05
1.54614e-05
1.54565e-05
1.54664e-05
1.5452e-05
1.54544e-05
1.54392e-05
1.54441e-05
1.54296e-05
1.54297e-05
1.54096e-05
1.54214e-05
1.5385e-05
1.5411e-05
1.53649e-05
1.5484e-05
1.53932e-05
1.54429e-05
1.5426e-05
1.54477e-05
1.54478e-05
1.54591e-05
1.54535e-05
1.54664e-05
1.54498e-05
1.54568e-05
1.54399e-05
1.54468e-05
1.5432e-05
1.54343e-05
1.54129e-05
1.54299e-05
1.5389e-05
1.54223e-05
1.53652e-05
1.54353e-05
1.53899e-05
1.5443e-05
1.54232e-05
1.54462e-05
1.54454e-05
1.54585e-05
1.54518e-05
1.54679e-05
1.54488e-05
1.546e-05
1.54416e-05
1.54504e-05
1.54356e-05
1.54398e-05
1.54172e-05
1.54392e-05
1.53935e-05
1.54343e-05
1.53727e-05
1.54391e-05
1.53914e-05
1.54454e-05
1.54223e-05
1.54463e-05
1.54446e-05
1.54591e-05
1.54513e-05
1.54706e-05
1.54487e-05
1.54641e-05
1.5444e-05
1.54547e-05
1.54403e-05
1.54459e-05
1.54223e-05
1.54491e-05
1.53983e-05
1.5446e-05
1.53793e-05
1.54479e-05
1.53942e-05
1.54493e-05
1.54228e-05
1.54476e-05
1.54449e-05
1.54607e-05
1.54519e-05
1.54745e-05
1.54493e-05
1.54689e-05
1.54469e-05
1.54596e-05
1.5446e-05
1.54524e-05
1.54282e-05
1.54593e-05
1.5403e-05
1.54574e-05
1.53852e-05
1.54571e-05
1.53972e-05
1.5454e-05
1.54242e-05
1.54496e-05
1.54464e-05
1.5463e-05
1.54534e-05
1.54794e-05
1.54506e-05
1.54744e-05
1.54504e-05
1.54651e-05
1.54529e-05
1.54592e-05
1.54348e-05
1.54699e-05
1.54079e-05
1.54683e-05
1.53903e-05
1.54662e-05
1.54004e-05
1.54593e-05
1.54265e-05
1.54521e-05
1.54488e-05
1.54659e-05
1.54558e-05
1.54853e-05
1.54524e-05
1.54806e-05
1.54544e-05
1.54712e-05
1.5461e-05
1.5466e-05
1.54423e-05
1.54809e-05
1.54128e-05
1.54791e-05
1.53952e-05
1.54751e-05
1.54038e-05
1.54651e-05
1.54296e-05
1.54552e-05
1.54521e-05
1.54693e-05
1.54591e-05
1.54921e-05
1.54547e-05
1.54877e-05
1.54588e-05
1.54779e-05
1.54702e-05
1.54729e-05
1.54507e-05
1.54925e-05
1.54179e-05
1.54899e-05
1.53998e-05
1.54842e-05
1.54076e-05
1.54712e-05
1.54333e-05
1.54587e-05
1.54564e-05
1.54731e-05
1.54633e-05
1.55001e-05
1.54574e-05
1.54957e-05
1.54635e-05
1.54852e-05
1.54808e-05
1.54797e-05
1.546e-05
1.55049e-05
1.54232e-05
1.55009e-05
1.54044e-05
1.54934e-05
1.54117e-05
1.54777e-05
1.54378e-05
1.54627e-05
1.54617e-05
1.54773e-05
1.54686e-05
1.55092e-05
1.54606e-05
1.55047e-05
1.54686e-05
1.54934e-05
1.54928e-05
1.54865e-05
1.54703e-05
1.5518e-05
1.54287e-05
1.55121e-05
1.54094e-05
1.55031e-05
1.54164e-05
1.54847e-05
1.54429e-05
1.54671e-05
1.54682e-05
1.5482e-05
1.54752e-05
1.55196e-05
1.54642e-05
1.55146e-05
1.54741e-05
1.55025e-05
1.55065e-05
1.54932e-05
1.5482e-05
1.55323e-05
1.54345e-05
1.5524e-05
1.54152e-05
1.55134e-05
1.54221e-05
1.54923e-05
1.54487e-05
1.5472e-05
1.5476e-05
1.54872e-05
1.54831e-05
1.55315e-05
1.54682e-05
1.55258e-05
1.54799e-05
1.55127e-05
1.5522e-05
1.54998e-05
1.54952e-05
1.55478e-05
1.54407e-05
1.55367e-05
1.54223e-05
1.55245e-05
1.54292e-05
1.55009e-05
1.54553e-05
1.54776e-05
1.54853e-05
1.54932e-05
1.54927e-05
1.55451e-05
1.54728e-05
1.55384e-05
1.5486e-05
1.55244e-05
1.55395e-05
1.55062e-05
1.55101e-05
1.55651e-05
1.54472e-05
1.55504e-05
1.54304e-05
1.55369e-05
1.54372e-05
1.55107e-05
1.54627e-05
1.54838e-05
1.54964e-05
1.54997e-05
1.55041e-05
1.55607e-05
1.54778e-05
1.55526e-05
1.5493e-05
1.55376e-05
1.55592e-05
1.5513e-05
1.55269e-05
1.5584e-05
1.54548e-05
1.55653e-05
1.54408e-05
1.55507e-05
1.54473e-05
1.5522e-05
1.54712e-05
1.54915e-05
1.55097e-05
1.55075e-05
1.55176e-05
1.55784e-05
1.54841e-05
1.55687e-05
1.54998e-05
1.55531e-05
1.55816e-05
1.55189e-05
1.55463e-05
1.56054e-05
1.54621e-05
1.55821e-05
1.54515e-05
1.55665e-05
1.54577e-05
1.55356e-05
1.54804e-05
1.54997e-05
1.55257e-05
1.55154e-05
1.55343e-05
1.55992e-05
1.54904e-05
1.55868e-05
1.55091e-05
1.55699e-05
1.5606e-05
1.55263e-05
1.5567e-05
1.56283e-05
1.54719e-05
1.56007e-05
1.54659e-05
1.55845e-05
1.54716e-05
1.55515e-05
1.54912e-05
1.55101e-05
1.55448e-05
1.5526e-05
1.5553e-05
1.56221e-05
1.54993e-05
1.56076e-05
1.55163e-05
1.55902e-05
1.56335e-05
1.55307e-05
1.55917e-05
1.56548e-05
1.54806e-05
1.56218e-05
1.54794e-05
1.56057e-05
1.54844e-05
1.55716e-05
1.55029e-05
1.55213e-05
1.55681e-05
1.55351e-05
1.55766e-05
1.56488e-05
1.55071e-05
1.56305e-05
1.55296e-05
1.56106e-05
1.56622e-05
1.55401e-05
1.56162e-05
1.56821e-05
1.54944e-05
1.56452e-05
1.54983e-05
1.56299e-05
1.55028e-05
1.55956e-05
1.55179e-05
1.55354e-05
1.55956e-05
1.55502e-05
1.56007e-05
1.56773e-05
1.55199e-05
1.56567e-05
1.5537e-05
1.5637e-05
1.56955e-05
1.55411e-05
1.56472e-05
1.57138e-05
1.55044e-05
1.56716e-05
1.55134e-05
1.56582e-05
1.55171e-05
1.56257e-05
1.55316e-05
1.55517e-05
1.56288e-05
1.55598e-05
1.56324e-05
1.57103e-05
1.55287e-05
1.56849e-05
1.55569e-05
1.56608e-05
1.57286e-05
1.55572e-05
1.56748e-05
1.57451e-05
1.55236e-05
1.57003e-05
1.55381e-05
1.56896e-05
1.55416e-05
1.56601e-05
1.55533e-05
1.55701e-05
1.56655e-05
1.55817e-05
1.56607e-05
1.57435e-05
1.55473e-05
1.57232e-05
1.5722e-05
1.57044e-05
1.57687e-05
1.571e-05
1.57218e-05
1.57819e-05
1.57001e-05
1.57366e-05
1.57955e-05
1.57312e-05
1.58116e-05
1.57074e-05
1.5741e-05
1.57585e-05
1.5718e-05
1.57416e-05
1.57114e-05
1.57823e-05
1.57138e-05
1.65227e-05
3.93401e-05
1.69142e-05
1.58265e-05
3.92255e-05
1.68657e-05
1.58332e-05
3.83001e-05
1.64037e-05
3.98467e-05
1.63949e-05
4.17082e-05
1.63569e-05
4.37912e-05
3.50934e-05
1.67799e-05
3.73828e-05
1.70564e-05
1.58553e-05
3.73517e-05
1.76219e-05
1.76497e-05
1.76543e-05
1.76655e-05
1.76862e-05
1.7709e-05
1.77316e-05
1.77624e-05
1.78219e-05
1.7894e-05
1.78834e-05
1.78035e-05
1.78994e-05
1.81352e-05
1.82408e-05
1.81406e-05
1.79563e-05
1.78094e-05
1.77335e-05
1.76909e-05
1.72586e-05
1.72508e-05
1.72363e-05
1.7237e-05
1.72494e-05
1.72674e-05
1.72918e-05
1.7336e-05
1.74351e-05
1.75463e-05
1.75499e-05
1.76071e-05
1.78846e-05
1.80717e-05
1.79924e-05
1.7784e-05
1.7604e-05
1.74893e-05
1.74162e-05
1.73572e-05
1.68304e-05
1.68059e-05
1.67972e-05
1.68055e-05
1.68235e-05
1.68478e-05
1.68819e-05
1.69451e-05
1.71134e-05
1.72951e-05
1.73825e-05
1.76189e-05
1.78646e-05
1.77929e-05
1.75592e-05
1.73514e-05
1.72058e-05
1.70955e-05
1.70051e-05
1.69333e-05
1.64615e-05
1.64372e-05
1.64402e-05
1.64572e-05
1.64817e-05
1.65123e-05
1.65544e-05
1.66304e-05
1.6907e-05
1.71965e-05
1.74249e-05
1.78105e-05
1.7873e-05
1.75671e-05
1.72421e-05
1.70051e-05
1.68404e-05
1.67166e-05
1.66207e-05
1.65525e-05
1.61777e-05
1.61586e-05
1.61673e-05
1.61895e-05
1.62177e-05
1.62506e-05
1.62956e-05
1.63768e-05
1.68157e-05
1.72368e-05
1.76181e-05
1.8014e-05
1.77744e-05
1.72782e-05
1.68972e-05
1.66564e-05
1.6504e-05
1.63947e-05
1.63109e-05
1.62545e-05
1.59689e-05
1.59563e-05
1.59642e-05
1.59879e-05
1.60174e-05
1.60502e-05
1.60947e-05
1.61734e-05
1.67831e-05
1.73283e-05
1.77363e-05
1.80999e-05
1.7599e-05
1.69575e-05
1.65644e-05
1.63565e-05
1.62347e-05
1.61466e-05
1.60774e-05
1.60329e-05
1.58195e-05
1.58114e-05
1.58163e-05
1.5836e-05
1.5865e-05
1.58967e-05
1.59387e-05
1.60099e-05
1.67622e-05
1.74168e-05
1.74366e-05
1.78893e-05
1.7287e-05
1.66205e-05
1.62833e-05
1.61263e-05
1.60333e-05
1.59633e-05
1.5907e-05
1.58727e-05
1.57126e-05
1.57074e-05
1.57094e-05
1.57207e-05
1.57463e-05
1.57766e-05
1.58137e-05
1.58759e-05
1.67461e-05
1.75175e-05
1.74663e-05
1.80186e-05
1.70405e-05
1.63341e-05
1.60671e-05
1.59548e-05
1.58839e-05
1.58284e-05
1.57834e-05
1.57571e-05
1.56373e-05
1.56334e-05
1.56334e-05
1.56365e-05
1.56538e-05
1.56824e-05
1.57146e-05
1.57727e-05
1.68874e-05
1.7717e-05
1.74556e-05
1.77289e-05
1.6644e-05
1.60845e-05
1.59057e-05
1.58285e-05
1.57738e-05
1.573e-05
1.56947e-05
1.56745e-05
1.5584e-05
1.55805e-05
1.55787e-05
1.55759e-05
1.55842e-05
1.5606e-05
1.56342e-05
1.56905e-05
1.71015e-05
1.79038e-05
1.74627e-05
1.76321e-05
1.63575e-05
1.59111e-05
1.57896e-05
1.57341e-05
1.56915e-05
1.56572e-05
1.56307e-05
1.5615e-05
1.55464e-05
1.55427e-05
1.55398e-05
1.55339e-05
1.55346e-05
1.55446e-05
1.55668e-05
1.562e-05
1.70933e-05
1.79208e-05
1.75031e-05
1.76461e-05
1.61334e-05
1.57846e-05
1.57022e-05
1.56615e-05
1.5629e-05
1.56033e-05
1.55847e-05
1.55722e-05
1.552e-05
1.55157e-05
1.55124e-05
1.55045e-05
1.55008e-05
1.54999e-05
1.55124e-05
1.55597e-05
1.69189e-05
1.78289e-05
1.76722e-05
1.76886e-05
1.59575e-05
1.56909e-05
1.56351e-05
1.56053e-05
1.5582e-05
1.5564e-05
1.55518e-05
1.55411e-05
1.55017e-05
1.54964e-05
1.54933e-05
1.5484e-05
1.54783e-05
1.54699e-05
1.54738e-05
1.55093e-05
1.69594e-05
1.79147e-05
1.75326e-05
1.80212e-05
1.58152e-05
1.56172e-05
1.55821e-05
1.55617e-05
1.55477e-05
1.55356e-05
1.55285e-05
1.55186e-05
1.54893e-05
1.54828e-05
1.54804e-05
1.54702e-05
1.54636e-05
1.54514e-05
1.54498e-05
1.5469e-05
1.69907e-05
1.80091e-05
1.77201e-05
1.8181e-05
1.56918e-05
1.55601e-05
1.55415e-05
1.55294e-05
1.55234e-05
1.55152e-05
1.55123e-05
1.55024e-05
1.54814e-05
1.54735e-05
1.54721e-05
1.5461e-05
1.54548e-05
1.54401e-05
1.54379e-05
1.54435e-05
1.70063e-05
1.80559e-05
1.78385e-05
1.81848e-05
1.55964e-05
1.55163e-05
1.55116e-05
1.55063e-05
1.55066e-05
1.55005e-05
1.55013e-05
1.54909e-05
1.54768e-05
1.54674e-05
1.54673e-05
1.54552e-05
1.54502e-05
1.54339e-05
1.54333e-05
1.54307e-05
1.68983e-05
1.86421e-05
1.83826e-05
1.73162e-05
1.55352e-05
1.54847e-05
1.54916e-05
1.54906e-05
1.54951e-05
1.54901e-05
1.54942e-05
1.54828e-05
1.54748e-05
1.54636e-05
1.54651e-05
1.54522e-05
1.54489e-05
1.5431e-05
1.54341e-05
1.54083e-05
1.56146e-05
1.8006e-05
1.81027e-05
1.57993e-05
1.54876e-05
1.54637e-05
1.54795e-05
1.548e-05
1.54876e-05
1.54829e-05
1.54902e-05
1.54773e-05
1.54746e-05
1.54617e-05
1.5465e-05
1.54513e-05
1.545e-05
1.54306e-05
1.54385e-05
1.54058e-05
1.54385e-05
1.5544e-05
1.59873e-05
1.54529e-05
1.54677e-05
1.54524e-05
1.54724e-05
1.5473e-05
1.54833e-05
1.5478e-05
1.54884e-05
1.54737e-05
1.54759e-05
1.54612e-05
1.54663e-05
1.5452e-05
1.54529e-05
1.54322e-05
1.54451e-05
1.54075e-05
1.54337e-05
1.53829e-05
1.5506e-05
1.5411e-05
1.54622e-05
1.54465e-05
1.54689e-05
1.54689e-05
1.54812e-05
1.5475e-05
1.54885e-05
1.54716e-05
1.54782e-05
1.54619e-05
1.54688e-05
1.54542e-05
1.54573e-05
1.54351e-05
1.54532e-05
1.54111e-05
1.54445e-05
1.53842e-05
1.54538e-05
1.54084e-05
1.54628e-05
1.5444e-05
1.54678e-05
1.54667e-05
1.54808e-05
1.54734e-05
1.54901e-05
1.54706e-05
1.54814e-05
1.54636e-05
1.54722e-05
1.54576e-05
1.54626e-05
1.54391e-05
1.54622e-05
1.54154e-05
1.54562e-05
1.53925e-05
1.54582e-05
1.54109e-05
1.54657e-05
1.54435e-05
1.54682e-05
1.54659e-05
1.54816e-05
1.5473e-05
1.54929e-05
1.54706e-05
1.54853e-05
1.5466e-05
1.54763e-05
1.54621e-05
1.54686e-05
1.54439e-05
1.54718e-05
1.54201e-05
1.54678e-05
1.53997e-05
1.54675e-05
1.54144e-05
1.547e-05
1.54444e-05
1.54698e-05
1.54665e-05
1.54835e-05
1.54736e-05
1.54968e-05
1.54713e-05
1.54899e-05
1.5469e-05
1.54811e-05
1.54678e-05
1.5475e-05
1.54497e-05
1.54819e-05
1.54248e-05
1.5479e-05
1.54062e-05
1.54773e-05
1.54181e-05
1.5475e-05
1.54462e-05
1.54721e-05
1.54681e-05
1.5486e-05
1.54751e-05
1.55018e-05
1.54727e-05
1.54953e-05
1.54725e-05
1.54864e-05
1.54745e-05
1.54816e-05
1.54561e-05
1.54923e-05
1.54297e-05
1.54898e-05
1.54117e-05
1.54866e-05
1.5422e-05
1.54806e-05
1.54488e-05
1.54749e-05
1.54706e-05
1.54891e-05
1.54775e-05
1.55077e-05
1.54746e-05
1.55014e-05
1.54765e-05
1.54923e-05
1.54825e-05
1.54884e-05
1.54634e-05
1.55032e-05
1.54346e-05
1.55004e-05
1.54169e-05
1.54957e-05
1.54259e-05
1.54865e-05
1.54522e-05
1.54782e-05
1.5474e-05
1.54927e-05
1.54808e-05
1.55145e-05
1.5477e-05
1.55083e-05
1.54809e-05
1.54988e-05
1.54917e-05
1.54952e-05
1.54717e-05
1.55147e-05
1.54398e-05
1.55111e-05
1.54219e-05
1.55048e-05
1.543e-05
1.54928e-05
1.54564e-05
1.5482e-05
1.54783e-05
1.54966e-05
1.5485e-05
1.55224e-05
1.54798e-05
1.55161e-05
1.54858e-05
1.5506e-05
1.55022e-05
1.55019e-05
1.54809e-05
1.55269e-05
1.54451e-05
1.55218e-05
1.54268e-05
1.5514e-05
1.54345e-05
1.54993e-05
1.54611e-05
1.54862e-05
1.54836e-05
1.5501e-05
1.54902e-05
1.55315e-05
1.54831e-05
1.55248e-05
1.54909e-05
1.55139e-05
1.55141e-05
1.55087e-05
1.54911e-05
1.554e-05
1.54506e-05
1.55328e-05
1.5432e-05
1.55236e-05
1.54396e-05
1.55063e-05
1.54665e-05
1.54907e-05
1.549e-05
1.55058e-05
1.54966e-05
1.55419e-05
1.54868e-05
1.55346e-05
1.54964e-05
1.55229e-05
1.55278e-05
1.55153e-05
1.55026e-05
1.55541e-05
1.54565e-05
1.55445e-05
1.5438e-05
1.55337e-05
1.54456e-05
1.55139e-05
1.54726e-05
1.54958e-05
1.54977e-05
1.55112e-05
1.55044e-05
1.55537e-05
1.54909e-05
1.55455e-05
1.55023e-05
1.5533e-05
1.55434e-05
1.5522e-05
1.55158e-05
1.55696e-05
1.54628e-05
1.55569e-05
1.54453e-05
1.55446e-05
1.54529e-05
1.55223e-05
1.54795e-05
1.55017e-05
1.55069e-05
1.55173e-05
1.55139e-05
1.55672e-05
1.54956e-05
1.55581e-05
1.55085e-05
1.55446e-05
1.55611e-05
1.55284e-05
1.55308e-05
1.5587e-05
1.54693e-05
1.55704e-05
1.54537e-05
1.55569e-05
1.54612e-05
1.5532e-05
1.54871e-05
1.55081e-05
1.55178e-05
1.5524e-05
1.55252e-05
1.55828e-05
1.55007e-05
1.55721e-05
1.55157e-05
1.55578e-05
1.5581e-05
1.55353e-05
1.55476e-05
1.56059e-05
1.5477e-05
1.55851e-05
1.54644e-05
1.55705e-05
1.54716e-05
1.55431e-05
1.54959e-05
1.5516e-05
1.5531e-05
1.5532e-05
1.55386e-05
1.56006e-05
1.55071e-05
1.55882e-05
1.55227e-05
1.55734e-05
1.56037e-05
1.55413e-05
1.55672e-05
1.56277e-05
1.54845e-05
1.56017e-05
1.54755e-05
1.55862e-05
1.54822e-05
1.55565e-05
1.55054e-05
1.55246e-05
1.55469e-05
1.55401e-05
1.55554e-05
1.56215e-05
1.55137e-05
1.56065e-05
1.55323e-05
1.55904e-05
1.56284e-05
1.55491e-05
1.55882e-05
1.56509e-05
1.54946e-05
1.56204e-05
1.54903e-05
1.56042e-05
1.54964e-05
1.55724e-05
1.55165e-05
1.55354e-05
1.55659e-05
1.55511e-05
1.55743e-05
1.56446e-05
1.5523e-05
1.56275e-05
1.554e-05
1.56112e-05
1.56564e-05
1.55538e-05
1.56133e-05
1.56778e-05
1.55036e-05
1.56416e-05
1.55042e-05
1.56255e-05
1.55096e-05
1.55925e-05
1.55286e-05
1.55471e-05
1.55893e-05
1.55606e-05
1.55982e-05
1.56716e-05
1.55311e-05
1.56508e-05
1.55539e-05
1.56319e-05
1.56856e-05
1.5564e-05
1.56382e-05
1.57057e-05
1.5518e-05
1.56654e-05
1.55239e-05
1.56501e-05
1.55287e-05
1.56167e-05
1.5544e-05
1.5562e-05
1.56171e-05
1.55765e-05
1.56228e-05
1.57006e-05
1.55446e-05
1.56775e-05
1.5562e-05
1.5659e-05
1.57194e-05
1.55659e-05
1.56699e-05
1.57379e-05
1.55287e-05
1.56923e-05
1.55398e-05
1.56789e-05
1.55437e-05
1.56474e-05
1.55581e-05
1.55791e-05
1.56509e-05
1.55869e-05
1.56552e-05
1.57342e-05
1.55542e-05
1.57063e-05
1.5583e-05
1.56835e-05
1.57531e-05
1.55831e-05
1.56981e-05
1.57699e-05
1.5549e-05
1.57216e-05
1.55659e-05
1.57111e-05
1.55693e-05
1.56826e-05
1.55802e-05
1.55985e-05
1.56883e-05
1.561e-05
1.56842e-05
1.5768e-05
1.55739e-05
1.57457e-05
1.57457e-05
1.57283e-05
1.57938e-05
1.57332e-05
1.57464e-05
1.58074e-05
1.5723e-05
1.5759e-05
1.58287e-05
1.57541e-05
1.58449e-05
1.57315e-05
1.57646e-05
1.57855e-05
1.57422e-05
1.57676e-05
1.57364e-05
1.58075e-05
1.57383e-05
1.65764e-05
3.89145e-05
1.6985e-05
1.58555e-05
3.87872e-05
1.69305e-05
1.58594e-05
3.78394e-05
1.6458e-05
3.93818e-05
1.64523e-05
4.1262e-05
1.64169e-05
4.33963e-05
3.46926e-05
1.68303e-05
3.69293e-05
1.7125e-05
1.58846e-05
3.68979e-05
1.77648e-05
1.77933e-05
1.77998e-05
1.78117e-05
1.78339e-05
1.78594e-05
1.78853e-05
1.79193e-05
1.79832e-05
1.80678e-05
1.80763e-05
1.79913e-05
1.80607e-05
1.83024e-05
1.84436e-05
1.83621e-05
1.8166e-05
1.79959e-05
1.79021e-05
1.78494e-05
1.73839e-05
1.73741e-05
1.7358e-05
1.73577e-05
1.73708e-05
1.73911e-05
1.74189e-05
1.74673e-05
1.75743e-05
1.77062e-05
1.77251e-05
1.77632e-05
1.80359e-05
1.82576e-05
1.8202e-05
1.79838e-05
1.77819e-05
1.76499e-05
1.7566e-05
1.74983e-05
1.69268e-05
1.68999e-05
1.68893e-05
1.68974e-05
1.6917e-05
1.69443e-05
1.69826e-05
1.70519e-05
1.72354e-05
1.74493e-05
1.75424e-05
1.77627e-05
1.80317e-05
1.7984e-05
1.77409e-05
1.75119e-05
1.73496e-05
1.72268e-05
1.71259e-05
1.70441e-05
1.65322e-05
1.65064e-05
1.65095e-05
1.65274e-05
1.6554e-05
1.65882e-05
1.66353e-05
1.67189e-05
1.70218e-05
1.73561e-05
1.75801e-05
1.79672e-05
1.80646e-05
1.77551e-05
1.74017e-05
1.7139e-05
1.69559e-05
1.68183e-05
1.67116e-05
1.66343e-05
1.62306e-05
1.62114e-05
1.6222e-05
1.62457e-05
1.62759e-05
1.63122e-05
1.63622e-05
1.64514e-05
1.69334e-05
1.74114e-05
1.77802e-05
1.81989e-05
1.7979e-05
1.74504e-05
1.70302e-05
1.67618e-05
1.65921e-05
1.64711e-05
1.63789e-05
1.63157e-05
1.60104e-05
1.59987e-05
1.6009e-05
1.60351e-05
1.60665e-05
1.61021e-05
1.61513e-05
1.62377e-05
1.69078e-05
1.7517e-05
1.79019e-05
1.83019e-05
1.7801e-05
1.71062e-05
1.6669e-05
1.64363e-05
1.63014e-05
1.62048e-05
1.61296e-05
1.60803e-05
1.58539e-05
1.58474e-05
1.58544e-05
1.58776e-05
1.59086e-05
1.59421e-05
1.59882e-05
1.60662e-05
1.68925e-05
1.76162e-05
1.75848e-05
1.80709e-05
1.74641e-05
1.67385e-05
1.63626e-05
1.61873e-05
1.60854e-05
1.60095e-05
1.5949e-05
1.59114e-05
1.57426e-05
1.57394e-05
1.57431e-05
1.57579e-05
1.57864e-05
1.5818e-05
1.58583e-05
1.59256e-05
1.68822e-05
1.77254e-05
1.76093e-05
1.82204e-05
1.72043e-05
1.64265e-05
1.61278e-05
1.60031e-05
1.59263e-05
1.58666e-05
1.58187e-05
1.57902e-05
1.56647e-05
1.56629e-05
1.56644e-05
1.56697e-05
1.56913e-05
1.57214e-05
1.5756e-05
1.58178e-05
1.70433e-05
1.79442e-05
1.75982e-05
1.7925e-05
1.6774e-05
1.61527e-05
1.59533e-05
1.58683e-05
1.58097e-05
1.57629e-05
1.57257e-05
1.5704e-05
1.56099e-05
1.56083e-05
1.5608e-05
1.56066e-05
1.56179e-05
1.56434e-05
1.56739e-05
1.57324e-05
1.72806e-05
1.81487e-05
1.76072e-05
1.78308e-05
1.64612e-05
1.59635e-05
1.58287e-05
1.57683e-05
1.57229e-05
1.56866e-05
1.56589e-05
1.56423e-05
1.55714e-05
1.55694e-05
1.55678e-05
1.55632e-05
1.55657e-05
1.55799e-05
1.56052e-05
1.56599e-05
1.72737e-05
1.81646e-05
1.76517e-05
1.78577e-05
1.62171e-05
1.58266e-05
1.57356e-05
1.56918e-05
1.56574e-05
1.56303e-05
1.56112e-05
1.55981e-05
1.55444e-05
1.55416e-05
1.55395e-05
1.55328e-05
1.55305e-05
1.5532e-05
1.55483e-05
1.55988e-05
1.70878e-05
1.80654e-05
1.78446e-05
1.79165e-05
1.60249e-05
1.5726e-05
1.56645e-05
1.56328e-05
1.56084e-05
1.55896e-05
1.55773e-05
1.55662e-05
1.55259e-05
1.55219e-05
1.55199e-05
1.55116e-05
1.55072e-05
1.54999e-05
1.55063e-05
1.55474e-05
1.71359e-05
1.81581e-05
1.7689e-05
1.82878e-05
1.58704e-05
1.56476e-05
1.56088e-05
1.55874e-05
1.55727e-05
1.55604e-05
1.55534e-05
1.55432e-05
1.55134e-05
1.55081e-05
1.55065e-05
1.54972e-05
1.54918e-05
1.54805e-05
1.54803e-05
1.55037e-05
1.71732e-05
1.82593e-05
1.79066e-05
1.8475e-05
1.57356e-05
1.55871e-05
1.55663e-05
1.55538e-05
1.55477e-05
1.55395e-05
1.55369e-05
1.55267e-05
1.55055e-05
1.54986e-05
1.54979e-05
1.54875e-05
1.54824e-05
1.54684e-05
1.54674e-05
1.54748e-05
1.71891e-05
1.83042e-05
1.80419e-05
1.8487e-05
1.56305e-05
1.55412e-05
1.55353e-05
1.553e-05
1.55306e-05
1.55246e-05
1.55258e-05
1.55151e-05
1.55009e-05
1.54923e-05
1.54929e-05
1.54814e-05
1.54774e-05
1.54614e-05
1.5462e-05
1.54604e-05
1.70657e-05
1.89742e-05
1.86733e-05
1.75354e-05
1.55633e-05
1.55082e-05
1.55147e-05
1.55141e-05
1.55191e-05
1.55141e-05
1.55187e-05
1.55071e-05
1.54989e-05
1.54885e-05
1.54905e-05
1.54781e-05
1.54757e-05
1.54579e-05
1.5462e-05
1.54361e-05
1.56517e-05
1.82815e-05
1.83912e-05
1.58594e-05
1.55105e-05
1.54866e-05
1.55025e-05
1.55034e-05
1.55118e-05
1.55069e-05
1.55147e-05
1.55017e-05
1.54988e-05
1.54867e-05
1.54902e-05
1.54769e-05
1.54765e-05
1.54569e-05
1.54658e-05
1.54325e-05
1.54662e-05
1.55682e-05
1.60548e-05
1.54769e-05
1.54893e-05
1.54753e-05
1.54958e-05
1.54966e-05
1.55076e-05
1.55022e-05
1.55131e-05
1.54982e-05
1.55e-05
1.54862e-05
1.54914e-05
1.54775e-05
1.54792e-05
1.5458e-05
1.5472e-05
1.54335e-05
1.54599e-05
1.54045e-05
1.55308e-05
1.54319e-05
1.5484e-05
1.54696e-05
1.54926e-05
1.54926e-05
1.55058e-05
1.54992e-05
1.55133e-05
1.54962e-05
1.55023e-05
1.5487e-05
1.54938e-05
1.54795e-05
1.54834e-05
1.54606e-05
1.54797e-05
1.54368e-05
1.54701e-05
1.54069e-05
1.54751e-05
1.54301e-05
1.54852e-05
1.54676e-05
1.54919e-05
1.54907e-05
1.55058e-05
1.54978e-05
1.5515e-05
1.54954e-05
1.55055e-05
1.54887e-05
1.54971e-05
1.54828e-05
1.54886e-05
1.54643e-05
1.54884e-05
1.54408e-05
1.54814e-05
1.5416e-05
1.54801e-05
1.54337e-05
1.54887e-05
1.54675e-05
1.54927e-05
1.54902e-05
1.55069e-05
1.54975e-05
1.5518e-05
1.54955e-05
1.55094e-05
1.54912e-05
1.5501e-05
1.54872e-05
1.54944e-05
1.54689e-05
1.54978e-05
1.54454e-05
1.54927e-05
1.54238e-05
1.54901e-05
1.54381e-05
1.54934e-05
1.54689e-05
1.54947e-05
1.54909e-05
1.55091e-05
1.54982e-05
1.5522e-05
1.54965e-05
1.55139e-05
1.54943e-05
1.55056e-05
1.54927e-05
1.55007e-05
1.54745e-05
1.55077e-05
1.54501e-05
1.55037e-05
1.54308e-05
1.55003e-05
1.54425e-05
1.54988e-05
1.54712e-05
1.54974e-05
1.54927e-05
1.55119e-05
1.54998e-05
1.5527e-05
1.5498e-05
1.55192e-05
1.54979e-05
1.55108e-05
1.54994e-05
1.55073e-05
1.54807e-05
1.55179e-05
1.5455e-05
1.55143e-05
1.54368e-05
1.55099e-05
1.5447e-05
1.55047e-05
1.54743e-05
1.55006e-05
1.54953e-05
1.55153e-05
1.55023e-05
1.5533e-05
1.55001e-05
1.55251e-05
1.5502e-05
1.55165e-05
1.55073e-05
1.5514e-05
1.54879e-05
1.55286e-05
1.546e-05
1.55248e-05
1.54424e-05
1.55192e-05
1.54514e-05
1.55108e-05
1.54781e-05
1.55042e-05
1.54988e-05
1.55191e-05
1.55056e-05
1.55399e-05
1.55026e-05
1.55318e-05
1.55064e-05
1.55229e-05
1.55164e-05
1.55207e-05
1.5496e-05
1.554e-05
1.54652e-05
1.55352e-05
1.54477e-05
1.55283e-05
1.54561e-05
1.55172e-05
1.54826e-05
1.55082e-05
1.55032e-05
1.55232e-05
1.55098e-05
1.55477e-05
1.55056e-05
1.55394e-05
1.55113e-05
1.55298e-05
1.55268e-05
1.55274e-05
1.5505e-05
1.5552e-05
1.54706e-05
1.55457e-05
1.54529e-05
1.55375e-05
1.5461e-05
1.55238e-05
1.54877e-05
1.55126e-05
1.55085e-05
1.55278e-05
1.5515e-05
1.55568e-05
1.5509e-05
1.55479e-05
1.55166e-05
1.55376e-05
1.55387e-05
1.55341e-05
1.55151e-05
1.5565e-05
1.54762e-05
1.55564e-05
1.54584e-05
1.55469e-05
1.54664e-05
1.55307e-05
1.54934e-05
1.55174e-05
1.55149e-05
1.55328e-05
1.55213e-05
1.55671e-05
1.55128e-05
1.55574e-05
1.55221e-05
1.55463e-05
1.55524e-05
1.55407e-05
1.55265e-05
1.5579e-05
1.54821e-05
1.55678e-05
1.54646e-05
1.55569e-05
1.54727e-05
1.55382e-05
1.54998e-05
1.55226e-05
1.55226e-05
1.55383e-05
1.5529e-05
1.55789e-05
1.5517e-05
1.55682e-05
1.55281e-05
1.55563e-05
1.55679e-05
1.55474e-05
1.55396e-05
1.55945e-05
1.54884e-05
1.55799e-05
1.54721e-05
1.55676e-05
1.54802e-05
1.55465e-05
1.55069e-05
1.55286e-05
1.55316e-05
1.55445e-05
1.55383e-05
1.55923e-05
1.55218e-05
1.55805e-05
1.55343e-05
1.55678e-05
1.55857e-05
1.55538e-05
1.55545e-05
1.56118e-05
1.5495e-05
1.55931e-05
1.54806e-05
1.55796e-05
1.54886e-05
1.5556e-05
1.55148e-05
1.55353e-05
1.55424e-05
1.55513e-05
1.55495e-05
1.56078e-05
1.55269e-05
1.55944e-05
1.55417e-05
1.5581e-05
1.56058e-05
1.55607e-05
1.55714e-05
1.56309e-05
1.55028e-05
1.56076e-05
1.54915e-05
1.5593e-05
1.54991e-05
1.5567e-05
1.55239e-05
1.55435e-05
1.55554e-05
1.55595e-05
1.55628e-05
1.56256e-05
1.55335e-05
1.56105e-05
1.55487e-05
1.55967e-05
1.56287e-05
1.5567e-05
1.55911e-05
1.56528e-05
1.55103e-05
1.56241e-05
1.55027e-05
1.56086e-05
1.55098e-05
1.55803e-05
1.55337e-05
1.55522e-05
1.55711e-05
1.55678e-05
1.55796e-05
1.56466e-05
1.55402e-05
1.56288e-05
1.55587e-05
1.56139e-05
1.56537e-05
1.5575e-05
1.56123e-05
1.56763e-05
1.55207e-05
1.56427e-05
1.55178e-05
1.56266e-05
1.55243e-05
1.5596e-05
1.55451e-05
1.55635e-05
1.559e-05
1.55792e-05
1.55986e-05
1.56699e-05
1.55499e-05
1.565e-05
1.55667e-05
1.5635e-05
1.56822e-05
1.55801e-05
1.56378e-05
1.57037e-05
1.553e-05
1.56641e-05
1.5532e-05
1.5648e-05
1.55376e-05
1.56161e-05
1.55573e-05
1.55756e-05
1.56135e-05
1.55891e-05
1.56228e-05
1.56973e-05
1.55583e-05
1.56737e-05
1.55812e-05
1.56562e-05
1.57119e-05
1.5591e-05
1.56631e-05
1.5732e-05
1.55449e-05
1.56881e-05
1.55523e-05
1.56728e-05
1.55573e-05
1.56405e-05
1.55732e-05
1.55911e-05
1.56415e-05
1.56056e-05
1.56478e-05
1.57267e-05
1.55723e-05
1.57009e-05
1.55899e-05
1.56839e-05
1.57463e-05
1.55936e-05
1.56955e-05
1.57648e-05
1.55561e-05
1.57155e-05
1.55688e-05
1.57022e-05
1.55728e-05
1.56716e-05
1.55876e-05
1.5609e-05
1.56758e-05
1.56167e-05
1.56809e-05
1.57608e-05
1.55826e-05
1.57303e-05
1.56119e-05
1.5709e-05
1.57804e-05
1.5612e-05
1.57243e-05
1.57974e-05
1.55774e-05
1.57454e-05
1.55961e-05
1.57351e-05
1.55995e-05
1.57077e-05
1.56102e-05
1.56292e-05
1.57138e-05
1.56409e-05
1.57106e-05
1.57953e-05
1.56033e-05
1.57708e-05
1.57716e-05
1.57551e-05
1.58218e-05
1.57589e-05
1.57738e-05
1.58355e-05
1.57482e-05
1.57839e-05
1.58635e-05
1.57796e-05
1.58795e-05
1.57581e-05
1.57903e-05
1.58144e-05
1.5769e-05
1.57957e-05
1.57642e-05
1.58355e-05
1.5765e-05
1.66337e-05
3.84286e-05
1.70599e-05
1.58882e-05
3.82898e-05
1.69987e-05
1.58896e-05
3.73227e-05
1.65162e-05
3.8853e-05
1.65143e-05
4.07433e-05
1.64839e-05
4.29215e-05
3.42566e-05
1.68842e-05
3.64252e-05
1.71972e-05
1.59171e-05
3.63926e-05
1.79132e-05
1.79408e-05
1.79488e-05
1.79612e-05
1.79848e-05
1.80131e-05
1.80426e-05
1.808e-05
1.81483e-05
1.82453e-05
1.82751e-05
1.81899e-05
1.82305e-05
1.84704e-05
1.86467e-05
1.85903e-05
1.83866e-05
1.81927e-05
1.80787e-05
1.80144e-05
1.75126e-05
1.74994e-05
1.74812e-05
1.74795e-05
1.74933e-05
1.7516e-05
1.75474e-05
1.76003e-05
1.77154e-05
1.78684e-05
1.7906e-05
1.79262e-05
1.81868e-05
1.84408e-05
1.84149e-05
1.81915e-05
1.79675e-05
1.78169e-05
1.77209e-05
1.76438e-05
1.70245e-05
1.69938e-05
1.69808e-05
1.69885e-05
1.70098e-05
1.70402e-05
1.70832e-05
1.71588e-05
1.73578e-05
1.76056e-05
1.77069e-05
1.79069e-05