/*--------------------------------*- C++ -*----------------------------------*\
| =========                 |                                                 |
| \\      /  F ield         | OpenFOAM: The Open Source CFD Toolbox           |
|  \\    /   O peration     | Version:  2.4.0                                 |
|   \\  /    A nd           | Web:      www.OpenFOAM.org                      |
|    \\/     M anipulation  |                                                 |
\*---------------------------------------------------------------------------*/
FoamFile
{
    version     2.0;
    format      ascii;
    class       volScalarField;
    location    "20";
    object      p;
}
// * * * * * * * * * * * * * * * * * * * * * * * * * * * * * * * * * * * * * //

dimensions      [0 2 -2 0 0 0 0];

internalField   nonuniform List<scalar> 
283312
(
-0.00375472
-0.00369866
-0.00354387
-0.00345783
-0.0033706
-0.00330416
-0.00323184
-0.00315108
-0.00305376
-0.0029482
-0.00285306
-0.0028233
-0.00289297
-0.0030913
-0.00334378
-0.00358665
-0.00376424
-0.00384235
-0.00386015
-0.00378247
-0.00362318
-0.00354276
-0.00338198
-0.00329383
-0.00320632
-0.00313886
-0.0030617
-0.00296751
-0.00285159
-0.0027238
-0.00263444
-0.00266614
-0.00284279
-0.00317127
-0.00346973
-0.00370713
-0.0038164
-0.00383062
-0.00378959
-0.00367491
-0.00389256
-0.00379795
-0.00365289
-0.00356875
-0.00350132
-0.00344467
-0.00339148
-0.0033055
-0.00320603
-0.00308243
-0.00306056
-0.00322258
-0.00354206
-0.00391631
-0.00412512
-0.00425082
-0.00423129
-0.00418323
-0.00408751
-0.00396542
-0.00387681
-0.00378076
-0.0036622
-0.00357985
-0.0035329
-0.0034838
-0.00345515
-0.00337169
-0.00329196
-0.00316048
-0.003241
-0.00356686
-0.00394069
-0.00424439
-0.00428207
-0.00431207
-0.00420393
-0.00415266
-0.00404445
-0.00394897
-0.00425595
-0.00415842
-0.00405917
-0.00397627
-0.00395289
-0.00390916
-0.0039131
-0.00383006
-0.00379331
-0.00364356
-0.00390456
-0.00435598
-0.00469186
-0.00483183
-0.00471106
-0.00468399
-0.00452554
-0.00450035
-0.0043852
-0.00432406
-0.00427375
-0.00417581
-0.0041002
-0.00402444
-0.00403217
-0.00400145
-0.00403505
-0.00395805
-0.00396157
-0.00377851
-0.00422102
-0.00470684
-0.00490761
-0.00489088
-0.00467154
-0.00463769
-0.00445808
-0.004464
-0.00435509
-0.00433094
-0.00445876
-0.00436418
-0.00430731
-0.00423523
-0.00426151
-0.00424046
-0.0042969
-0.00422584
-0.00428811
-0.00407511
-0.00469362
-0.0051078
-0.00515719
-0.00502277
-0.00476112
-0.00473493
-0.00454494
-0.00458536
-0.00448924
-0.00449772
-0.00442647
-0.00433189
-0.00429254
-0.00421948
-0.00424648
-0.00423089
-0.00430168
-0.00426045
-0.004363
-0.00415055
-0.0049707
-0.00521543
-0.00509214
-0.00488536
-0.00461064
-0.00460167
-0.00442409
-0.00449621
-0.00441919
-0.00444688
-0.004528
-0.00443345
-0.00441052
-0.00431642
-0.00432866
-0.0042995
-0.00438437
-0.00435292
-0.00452024
-0.00429445
-0.00528615
-0.00529621
-0.00505961
-0.00482364
-0.00456182
-0.00457581
-0.00442302
-0.00452647
-0.00447587
-0.0045209
-0.00457751
-0.00447759
-0.00447586
-0.00435471
-0.00436381
-0.00432013
-0.00441322
-0.00440821
-0.004589
-0.0043988
-0.00543729
-0.00526869
-0.00497316
-0.00473601
-0.00449395
-0.00452488
-0.00439595
-0.0045128
-0.00449074
-0.00453764
-0.00464742
-0.0045385
-0.0045716
-0.00443513
-0.00445751
-0.00438761
-0.00451193
-0.00446105
-0.00470302
-0.00445638
-0.00552659
-0.00521362
-0.0049406
-0.00470773
-0.00450101
-0.00452757
-0.00442095
-0.00453102
-0.00453497
-0.00457243
-0.00467123
-0.00454747
-0.00463453
-0.00448269
-0.00454944
-0.00444675
-0.00460199
-0.00449925
-0.00479278
-0.00452914
-0.00558865
-0.00511708
-0.00490914
-0.00466056
-0.00451413
-0.00451077
-0.00442997
-0.00450836
-0.00454205
-0.00455572
-0.00467214
-0.00452467
-0.00467646
-0.00449934
-0.00463304
-0.0044699
-0.00468627
-0.00449348
-0.00488074
-0.00461511
-0.00556359
-0.00500604
-0.00488487
-0.00461094
-0.00453107
-0.00448533
-0.00443709
-0.00446906
-0.00453626
-0.00451368
-0.00465984
-0.00447871
-0.00470062
-0.00447988
-0.00469756
-0.00445147
-0.00474979
-0.00445022
-0.00494749
-0.00469851
-0.00554092
-0.00482274
-0.00485829
-0.00451093
-0.00454176
-0.00442671
-0.00444062
-0.00441247
-0.00452432
-0.00445579
-0.00464686
-0.0044238
-0.0047188
-0.00443455
-0.004753
-0.00439768
-0.00481099
-0.00436934
-0.00501942
-0.00474712
-0.00546393
-0.00466577
-0.00484926
-0.00442482
-0.00456117
-0.0043604
-0.00445037
-0.00434982
-0.00451568
-0.00439482
-0.00463416
-0.00436344
-0.00473401
-0.00437298
-0.00480626
-0.00432366
-0.00487731
-0.00426568
-0.00505523
-0.00460073
-0.00537434
-0.00442351
-0.00485181
-0.00431058
-0.00459469
-0.0042773
-0.00446806
-0.00428218
-0.00451047
-0.00433295
-0.00461823
-0.00429681
-0.00474529
-0.00430003
-0.00485942
-0.00423273
-0.00494524
-0.00414738
-0.00503703
-0.00427925
-0.0052424
-0.00421443
-0.00487699
-0.00421755
-0.00464238
-0.00419055
-0.00449248
-0.00421023
-0.0045054
-0.00426776
-0.00459805
-0.00422445
-0.00475067
-0.00421935
-0.00490867
-0.00413181
-0.0050113
-0.00403261
-0.00507406
-0.00403072
-0.0050843
-0.0040515
-0.00490753
-0.00409883
-0.00469286
-0.00408912
-0.00451694
-0.00413227
-0.00449804
-0.0041983
-0.00457775
-0.0041505
-0.00475217
-0.00413652
-0.00495271
-0.00402473
-0.00506964
-0.00391337
-0.00511064
-0.00388624
-0.00509188
-0.0039438
-0.00494686
-0.00399167
-0.00474394
-0.00398574
-0.00454025
-0.00405333
-0.00449087
-0.00412786
-0.0045581
-0.00407485
-0.00474834
-0.0040543
-0.00498573
-0.00391802
-0.0051153
-0.00380267
-0.00513923
-0.00378854
-0.00507496
-0.00381957
-0.00497617
-0.00386725
-0.00478865
-0.00387667
-0.00455645
-0.00397355
-0.00448275
-0.00405547
-0.00454021
-0.00399738
-0.00473952
-0.003976
-0.00500713
-0.00381571
-0.00515055
-0.00369114
-0.00515624
-0.00367039
-0.00509042
-0.00372367
-0.00499988
-0.00375421
-0.00482542
-0.00377041
-0.00456311
-0.00389468
-0.00447337
-0.00398033
-0.00452478
-0.00391741
-0.00472571
-0.00390251
-0.0050131
-0.00372037
-0.00516916
-0.0035909
-0.00516303
-0.00358304
-0.00508247
-0.00361075
-0.00501462
-0.00363684
-0.00484986
-0.00366659
-0.00455722
-0.00381687
-0.00446205
-0.00390113
-0.00451182
-0.00383399
-0.00470738
-0.00383382
-0.00500351
-0.00363239
-0.00517541
-0.00349073
-0.00516393
-0.00347284
-0.00508125
-0.00351172
-0.00501965
-0.00352742
-0.00485937
-0.00356823
-0.0045377
-0.00373999
-0.0044483
-0.00381695
-0.00450053
-0.00374667
-0.00468536
-0.0037685
-0.00497807
-0.00355012
-0.00516619
-0.00339609
-0.0051578
-0.00337834
-0.00507843
-0.00339936
-0.00501822
-0.00341707
-0.00485292
-0.00347478
-0.00450405
-0.00366312
-0.00443125
-0.00372714
-0.00448954
-0.00365507
-0.00466028
-0.00370464
-0.00493778
-0.00347239
-0.00514387
-0.00329936
-0.00514947
-0.00326502
-0.00507238
-0.00328878
-0.00500732
-0.00330773
-0.00483155
-0.00338522
-0.00445751
-0.00358532
-0.00441022
-0.00363172
-0.00447691
-0.00355937
-0.00463275
-0.00364052
-0.00488379
-0.00339567
-0.00511071
-0.0031988
-0.00513712
-0.00315419
-0.00507072
-0.00316803
-0.00498784
-0.00319633
-0.00479602
-0.00329769
-0.00439947
-0.00350546
-0.00438415
-0.00353124
-0.00446111
-0.00346012
-0.00460307
-0.00357465
-0.00481773
-0.00331845
-0.00506831
-0.00309469
-0.00512013
-0.00303357
-0.00506368
-0.0030411
-0.00496074
-0.00308105
-0.00474849
-0.00321019
-0.00433188
-0.00342281
-0.00435241
-0.00342662
-0.0044403
-0.00335516
-0.00457027
-0.00350582
-0.00473749
-0.0032385
-0.00501783
-0.00298235
-0.00509881
-0.00290609
-0.00505203
-0.00290558
-0.00492481
-0.00295773
-0.0046884
-0.00312066
-0.0042536
-0.00333657
-0.00431408
-0.00331623
-0.00441703
-0.00325649
-0.00453711
-0.00343646
-0.00465395
-0.00315783
-0.00496284
-0.00287522
-0.00507434
-0.00278822
-0.00503654
-0.00277589
-0.0048843
-0.00283922
-0.00463101
-0.00303151
-0.00417616
-0.0032501
-0.00427058
-0.00321267
-0.0043789
-0.0031065
-0.0044878
-0.00335785
-0.00451537
-0.00306569
-0.0048954
-0.00271362
-0.00503393
-0.0026159
-0.00500179
-0.00259031
-0.0048235
-0.00266024
-0.00451363
-0.00292502
-0.00404252
-0.00314803
-0.00421335
-0.00305696
-0.00436707
-0.0030832
-0.00446832
-0.00329975
-0.00447872
-0.00300031
-0.0048437
-0.0026858
-0.00501599
-0.00259185
-0.00498771
-0.00255079
-0.00479318
-0.00262565
-0.00453681
-0.00285738
-0.0040311
-0.0030841
-0.00417285
-0.00303331
-0.00429514
-0.00273849
-0.00436135
-0.00319215
-0.00414949
-0.00286484
-0.00474018
-0.00232376
-0.00493846
-0.00220561
-0.00490652
-0.00214506
-0.00467461
-0.00223066
-0.00421449
-0.00269602
-0.00369006
-0.00292578
-0.00407629
-0.00267977
-0.00429732
-0.00288987
-0.00438108
-0.00316186
-0.00424303
-0.0028463
-0.00470558
-0.00248837
-0.00492487
-0.00239976
-0.00489405
-0.00232544
-0.00467254
-0.00239437
-0.00441448
-0.00266964
-0.00384531
-0.00292317
-0.00405563
-0.00283929
-0.00421621
-0.00227908
-0.00418936
-0.00301839
-0.00366432
-0.00263887
-0.00457107
-0.00186712
-0.00484424
-0.00172755
-0.00480068
-0.00162405
-0.00450012
-0.00171671
-0.00386145
-0.00244948
-0.00323085
-0.0026839
-0.00392458
-0.00222754
-0.00424577
-0.00262984
-0.00426337
-0.00302537
-0.00392313
-0.00269174
-0.00455459
-0.00222943
-0.00484082
-0.00212322
-0.00479744
-0.00201993
-0.00453861
-0.00211039
-0.00423584
-0.00248725
-0.00357555
-0.00276199
-0.00392464
-0.00257224
-0.00408471
-0.00151919
-0.00391451
-0.0028029
-0.00285477
-0.00232479
-0.00436885
-0.00116654
-0.00470504
-0.000980514
-0.00463754
-0.000818477
-0.00423814
-0.000908759
-0.00327423
-0.00211435
-0.00245736
-0.00236401
-0.00373172
-0.00150499
-0.00411146
-0.00214339
-0.00404957
-0.00283666
-0.00339393
-0.00246124
-0.00436659
-0.00176053
-0.00469401
-0.00161248
-0.00463496
-0.00147639
-0.00431158
-0.00158269
-0.00385021
-0.00220856
-0.00308398
-0.00253385
-0.00375288
-0.00210618
-0.00382775
-0.000261831
-0.00343735
-0.00250187
-0.00155995
-0.00182089
-0.00412714
-8.91767e-05
-0.00447688
0.000192977
-0.00437381
0.000432046
-0.00382142
0.000426158
-0.00232553
-0.00161702
-0.00120918
-0.0018767
-0.00348696
-0.000366367
-0.0038918
-0.00107968
-0.00366246
-0.00262091
-0.00231837
-0.00206851
-0.00419489
-0.000761772
-0.00448112
-0.000555163
-0.00440201
-0.000347052
-0.00397272
-0.000378239
-0.0029608
-0.00179738
-0.00202087
-0.00214949
-0.00355236
-0.00109542
-0.00332137
0.00242338
-0.0025488
-0.00210822
0.00111271
-0.000919227
-0.00387393
0.0022768
-0.00401289
0.00274961
-0.00387531
0.00313914
-0.00311563
0.00341227
-0.000317351
-0.000853022
0.00141334
-0.00101706
-0.00312352
0.00205367
-0.0092983
-0.00922655
-0.00905651
-0.00899235
-0.00895703
-0.00897375
-0.00900929
-0.00905909
-0.00912173
-0.00920958
-0.00932873
-0.00947943
-0.00961553
-0.00973408
-0.00979352
-0.009796
-0.00974568
-0.00963789
-0.00952572
-0.00935988
-0.00902009
-0.00892432
-0.00873917
-0.00866733
-0.00862695
-0.00863656
-0.00866234
-0.00869606
-0.00874631
-0.00883648
-0.00898658
-0.00916913
-0.00931599
-0.0094665
-0.00951732
-0.00952843
-0.00946445
-0.00936229
-0.00924835
-0.00908195
-0.00953797
-0.00941278
-0.00923546
-0.00916061
-0.00914258
-0.00917013
-0.00923133
-0.00928397
-0.00938357
-0.00952821
-0.00976905
-0.0100073
-0.0101655
-0.0102844
-0.0102416
-0.0101974
-0.0100614
-0.00994289
-0.00979524
-0.00963089
-0.00962914
-0.0094911
-0.00933572
-0.00925971
-0.00926992
-0.00930841
-0.00940646
-0.0094694
-0.00961937
-0.00980096
-0.01013
-0.0104041
-0.0105003
-0.0105391
-0.0103672
-0.0102905
-0.0100978
-0.0100087
-0.00985513
-0.00972154
-0.0103643
-0.0102157
-0.0100786
-0.00999711
-0.0100401
-0.0100868
-0.0102347
-0.0103022
-0.0105341
-0.010741
-0.0112041
-0.0114553
-0.0114723
-0.0113902
-0.0110964
-0.0109975
-0.0107541
-0.0107034
-0.0105425
-0.0104583
-0.0105226
-0.0103661
-0.0102558
-0.0101811
-0.0102689
-0.0103387
-0.0105316
-0.0106026
-0.0109069
-0.011107
-0.0116678
-0.0118211
-0.0117282
-0.0115377
-0.0111561
-0.0110592
-0.0107779
-0.0107771
-0.0106248
-0.0105962
-0.0108971
-0.0107435
-0.0106562
-0.010581
-0.01069
-0.0107665
-0.0109943
-0.0110683
-0.0114601
-0.0116514
-0.0123327
-0.0123291
-0.0121216
-0.0118211
-0.0113775
-0.0112826
-0.0109818
-0.0110368
-0.0109107
-0.01094
-0.0109139
-0.0107573
-0.010692
-0.0105937
-0.0107023
-0.0107742
-0.011023
-0.0111313
-0.01158
-0.0117849
-0.0125741
-0.0123726
-0.0120516
-0.0116707
-0.0111872
-0.0111164
-0.0108223
-0.0109372
-0.0108488
-0.0109214
-0.0111313
-0.0109742
-0.0109271
-0.0107838
-0.0108539
-0.0108898
-0.0111553
-0.0112678
-0.0117823
-0.0119481
-0.0128565
-0.0124355
-0.0120557
-0.0116185
-0.011132
-0.0110905
-0.0108324
-0.0110113
-0.0109756
-0.0110858
-0.0112685
-0.0111031
-0.011089
-0.0108953
-0.0109318
-0.0109236
-0.011199
-0.0113077
-0.0118498
-0.0119997
-0.0129213
-0.0123894
-0.0119707
-0.0115087
-0.0110367
-0.0110164
-0.0108076
-0.0110203
-0.0110362
-0.0111614
-0.0114204
-0.0112424
-0.0112954
-0.0110605
-0.0111209
-0.0110527
-0.0113615
-0.0113823
-0.0119732
-0.0119766
-0.0129635
-0.0123258
-0.0119777
-0.0114958
-0.0110684
-0.0110444
-0.0108604
-0.0110659
-0.0111288
-0.0112437
-0.0114812
-0.0112821
-0.0114401
-0.0111763
-0.0113134
-0.0111694
-0.0115221
-0.0114318
-0.0120389
-0.0119539
-0.0129754
-0.0121673
-0.0119753
-0.0114431
-0.0111094
-0.0110314
-0.0108847
-0.0110356
-0.0111496
-0.0112257
-0.0114852
-0.0112486
-0.0115358
-0.0112272
-0.011488
-0.0112203
-0.0116736
-0.0113828
-0.012127
-0.0118936
-0.0129365
-0.0120039
-0.0119662
-0.0113641
-0.0111486
-0.0109895
-0.0108975
-0.0109616
-0.0111341
-0.0111452
-0.0114534
-0.0111588
-0.011589
-0.0112011
-0.011624
-0.011188
-0.0117878
-0.0112672
-0.0121764
-0.0117927
-0.0128773
-0.0116942
-0.0119322
-0.011186
-0.0111694
-0.0108807
-0.0108984
-0.0108465
-0.0110988
-0.0110232
-0.0114113
-0.01104
-0.0116214
-0.011115
-0.0117366
-0.0110815
-0.0118938
-0.0110794
-0.0122314
-0.0116019
-0.0127644
-0.0114063
-0.0119091
-0.0110074
-0.0111998
-0.0107439
-0.0109061
-0.0107107
-0.0110634
-0.0108853
-0.0113649
-0.0109025
-0.0116419
-0.0109875
-0.0118407
-0.0109253
-0.0120114
-0.0108447
-0.0122617
-0.0111755
-0.0125812
-0.0110076
-0.0118969
-0.0107734
-0.0112531
-0.0105693
-0.0109263
-0.0105592
-0.0110319
-0.0107394
-0.0113104
-0.0107472
-0.0116504
-0.0108293
-0.0119412
-0.0107292
-0.0121333
-0.0105909
-0.0122973
-0.0107038
-0.0124822
-0.0106801
-0.0119202
-0.0105613
-0.0113324
-0.0103773
-0.0109583
-0.0103941
-0.011
-0.010583
-0.0112467
-0.0105763
-0.0116451
-0.0106492
-0.0120333
-0.0105054
-0.0122555
-0.0103291
-0.0123704
-0.0103413
-0.0123495
-0.010347
-0.0119562
-0.0103027
-0.0114191
-0.0101525
-0.0109904
-0.0102132
-0.0109639
-0.0104152
-0.0111812
-0.0103974
-0.0116294
-0.0104587
-0.0121133
-0.0102628
-0.0123632
-0.0100564
-0.0124244
-0.0100227
-0.012361
-0.0100841
-0.0120088
-0.0100526
-0.011507
-0.00991473
-0.0110189
-0.0100247
-0.0109273
-0.0102413
-0.0111165
-0.0102117
-0.0116016
-0.0102646
-0.0121708
-0.0100135
-0.0124482
-0.00979101
-0.0124654
-0.00977099
-0.0123112
-0.00979316
-0.0120446
-0.0097692
-0.0115823
-0.00966024
-0.0110322
-0.0098299
-0.0108887
-0.0100602
-0.011055
-0.0100192
-0.0115621
-0.0100743
-0.0122025
-0.00976679
-0.0125098
-0.00952254
-0.012481
-0.00948853
-0.012307
-0.00954454
-0.0120687
-0.0094966
-0.01164
-0.0094035
-0.0110241
-0.0096319
-0.0108472
-0.00987032
-0.0109981
-0.00981866
-0.0115109
-0.00989057
-0.012201
-0.00952849
-0.0125382
-0.00926864
-0.0124768
-0.00925141
-0.012264
-0.00926768
-0.0120731
-0.00921321
-0.0116706
-0.00914593
-0.0109881
-0.00943118
-0.0108012
-0.00966876
-0.0109455
-0.0096084
-0.0114487
-0.00971385
-0.0121645
-0.0093004
-0.0125384
-0.00901348
-0.0124574
-0.00897769
-0.0122305
-0.00900836
-0.0120567
-0.00893784
-0.0116678
-0.00889338
-0.0109211
-0.00922745
-0.0107493
-0.00945348
-0.0108957
-0.00938731
-0.0113767
-0.00954183
-0.0120914
-0.00908007
-0.0125052
-0.00876428
-0.0124236
-0.00872377
-0.0121933
-0.00872411
-0.0120233
-0.00865705
-0.0116284
-0.00864586
-0.0108215
-0.00901898
-0.0106895
-0.0092229
-0.0108454
-0.00915459
-0.0112961
-0.00937098
-0.0119829
-0.00886526
-0.0124423
-0.00850828
-0.0123822
-0.00843622
-0.0121505
-0.00843625
-0.0119679
-0.00837289
-0.0115534
-0.00840181
-0.0106913
-0.0088039
-0.01062
-0.00897698
-0.0107907
-0.00891046
-0.0112078
-0.0091979
-0.0118406
-0.00864969
-0.012354
-0.00824134
-0.0123308
-0.00814638
-0.0121128
-0.00812538
-0.011891
-0.00807996
-0.0114441
-0.0081581
-0.0105329
-0.00858009
-0.0105385
-0.00871663
-0.0107281
-0.00865557
-0.0111123
-0.00901972
-0.011667
-0.00843011
-0.0122437
-0.00796293
-0.0122679
-0.00783484
-0.0120637
-0.0077966
-0.0117943
-0.00777436
-0.0113043
-0.00791112
-0.0103499
-0.00834627
-0.0104436
-0.00844353
-0.0106543
-0.00838693
-0.0110079
-0.00883451
-0.0114591
-0.00820259
-0.0121144
-0.00766557
-0.0121936
-0.00750658
-0.0120026
-0.00744714
-0.0116763
-0.00744937
-0.0111347
-0.00765747
-0.0101412
-0.00810142
-0.0103336
-0.00815589
-0.0105721
-0.00811912
-0.0108977
-0.00864571
-0.0112299
-0.00796958
-0.0119721
-0.0073658
-0.0121088
-0.00718421
-0.0119293
-0.0070957
-0.011543
-0.00712028
-0.010956
-0.00739975
-0.00992096
-0.00785035
-0.0102102
-0.00786949
-0.0104648
-0.00777327
-0.0107589
-0.00844178
-0.0109087
-0.00771664
-0.011807
-0.00698254
-0.0119953
-0.00678121
-0.0118209
-0.00665943
-0.0113732
-0.00669834
-0.0106841
-0.00711365
-0.00961154
-0.00757273
-0.010062
-0.00750421
-0.0103913
-0.00758957
-0.0106551
-0.00826498
-0.0107066
-0.00749723
-0.0116589
-0.0067715
-0.0119077
-0.00657174
-0.0117335
-0.00641145
-0.0112392
-0.00646233
-0.010594
-0.0068787
-0.00945376
-0.00734484
-0.00993242
-0.00730933
-0.0102251
-0.00693949
-0.0104158
-0.00801475
-0.0100714
-0.00717324
-0.011431
-0.00607754
-0.0117253
-0.00584224
-0.0115385
-0.00563662
-0.0109692
-0.00570346
-0.0100026
-0.00650294
-0.00881423
-0.0069763
-0.00971664
-0.00663721
-0.0101667
-0.00696557
-0.0103495
-0.00787442
-0.0100023
-0.00701216
-0.0112989
-0.00610759
-0.0116342
-0.00591023
-0.0114401
-0.00566633
-0.010863
-0.00571302
-0.0101329
-0.00631991
-0.00884903
-0.00682936
-0.00960754
-0.00666832
-0.00998092
-0.00590177
-0.00996671
-0.00756911
-0.00896583
-0.00657598
-0.011019
-0.00501897
-0.0114378
-0.00474623
-0.011215
-0.00444183
-0.0105031
-0.00452097
-0.00919065
-0.0058526
-0.00778103
-0.00633716
-0.00933467
-0.00559876
-0.00994822
-0.00613134
-0.00994491
-0.00747166
-0.00904562
-0.00649609
-0.0109011
-0.0052635
-0.0113471
-0.00502425
-0.0111129
-0.00470056
-0.010433
-0.00478106
-0.00950703
-0.00574357
-0.00800318
-0.00628778
-0.00924286
-0.00582028
-0.00961514
-0.0042774
-0.00929646
-0.00703541
-0.00723137
-0.00580331
-0.0105321
-0.00348862
-0.0110436
-0.00312427
-0.0107628
-0.00269591
-0.00985601
-0.00276484
-0.00792543
-0.00502628
-0.006141
-0.00554378
-0.00886355
-0.00403641
-0.00954107
-0.0047683
-0.00930884
-0.00695514
-0.00758877
-0.00580301
-0.0104212
-0.00396406
-0.0109137
-0.00362727
-0.0106321
-0.0032142
-0.0097956
-0.00329249
-0.00843156
-0.00495993
-0.00664476
-0.00559028
-0.00878639
-0.0045158
-0.00899681
-0.00174118
-0.00824266
-0.00634496
-0.00461388
-0.00468682
-0.00996998
-0.00127957
-0.0104659
-0.000727898
-0.0101081
-0.000140997
-0.0089094
-3.86375e-05
-0.00599834
-0.00389471
-0.00363021
-0.00444387
-0.00828432
-0.00170989
-0.00891988
-0.00235192
-0.00829862
-0.00633231
-0.00514288
-0.00477814
-0.00992817
-0.00175037
-0.0103116
-0.0012672
-0.00997612
-0.000699051
-0.00890528
-0.000590793
-0.00649135
-0.00391399
-0.00426689
-0.0045921
-0.00824664
-0.00225253
-0.00797444
0.00273428
-0.00652785
-0.0054818
-0.000139672
-0.00294342
-0.00938679
0.00261295
-0.00952658
0.0035062
-0.00909201
0.00435803
-0.00749989
0.00494018
-0.00268762
-0.00235139
0.000748521
-0.00276504
-0.00751335
0.00232072
-0.0156623
-0.0155604
-0.0153614
-0.0152943
-0.01528
-0.015338
-0.015435
-0.0155628
-0.0157141
-0.015899
-0.0161143
-0.0163407
-0.0165179
-0.0166311
-0.0166381
-0.0165559
-0.0164067
-0.0162003
-0.0160039
-0.0157669
-0.0152287
-0.0151053
-0.014892
-0.0148174
-0.0147988
-0.0148539
-0.0149426
-0.015053
-0.0151978
-0.0153936
-0.0156492
-0.0159068
-0.0160733
-0.0161894
-0.0161628
-0.0160782
-0.0159176
-0.0157287
-0.0155473
-0.0153244
-0.0158488
-0.0156886
-0.0154784
-0.0154038
-0.0154165
-0.0154968
-0.0156328
-0.0157769
-0.0159902
-0.0162654
-0.0166304
-0.0169325
-0.0170744
-0.0171206
-0.0169721
-0.0168231
-0.0165918
-0.016399
-0.0161911
-0.0159734
-0.0159639
-0.0157858
-0.0155995
-0.0155232
-0.0155709
-0.0156729
-0.0158604
-0.0160253
-0.0163112
-0.0166457
-0.017107
-0.0174172
-0.0174464
-0.017377
-0.0170811
-0.0169074
-0.0166287
-0.0164751
-0.0162691
-0.0160937
-0.0168955
-0.0166984
-0.0165254
-0.0164416
-0.0165292
-0.0166482
-0.0169
-0.0170807
-0.0174762
-0.0178634
-0.0184594
-0.0187026
-0.018613
-0.0184028
-0.0179778
-0.0177856
-0.0174561
-0.0173562
-0.0171459
-0.0170233
-0.0171422
-0.0169314
-0.0167846
-0.0167063
-0.0168473
-0.0169916
-0.0173048
-0.017501
-0.0179941
-0.0183911
-0.0190751
-0.0191637
-0.0189356
-0.0186063
-0.0180864
-0.0179027
-0.0175367
-0.0174947
-0.0173012
-0.0172471
-0.0176324
-0.0174208
-0.0172935
-0.0172072
-0.0173729
-0.0175268
-0.0178848
-0.0180899
-0.0186967
-0.0191051
-0.0199018
-0.0197767
-0.0194153
-0.0189623
-0.01837
-0.018193
-0.0178003
-0.0178319
-0.0176745
-0.0176964
-0.0176846
-0.0174721
-0.0173653
-0.0172557
-0.0174072
-0.0175531
-0.0179377
-0.0181793
-0.018864
-0.0192922
-0.0201845
-0.0198107
-0.019335
-0.0187913
-0.0181494
-0.0179952
-0.0176178
-0.0177302
-0.017625
-0.0177076
-0.0179648
-0.0177489
-0.0176653
-0.0174902
-0.0175869
-0.0176812
-0.0180811
-0.0183197
-0.0190943
-0.0194775
-0.0204769
-0.0198579
-0.019318
-0.0187066
-0.0180528
-0.0179396
-0.0176105
-0.0178091
-0.0177769
-0.0179129
-0.0181428
-0.017922
-0.0178808
-0.0176315
-0.0176947
-0.0177298
-0.0181326
-0.0183729
-0.0191546
-0.0195122
-0.020516
-0.0197618
-0.0192088
-0.0185638
-0.0179215
-0.0178435
-0.0175615
-0.0178103
-0.0178472
-0.0180117
-0.0183283
-0.0180978
-0.0181421
-0.0178485
-0.0179299
-0.0178833
-0.0183249
-0.018438
-0.0192647
-0.0194341
-0.020508
-0.0196497
-0.0191979
-0.0185251
-0.0179331
-0.017846
-0.0175991
-0.0178459
-0.0179451
-0.0181035
-0.0183983
-0.0181485
-0.0183311
-0.0180033
-0.0181787
-0.0180321
-0.0185236
-0.0184726
-0.019338
-0.0193668
-0.0204892
-0.0194591
-0.0191839
-0.0184448
-0.0179618
-0.01781
-0.0176044
-0.0177881
-0.017952
-0.0180673
-0.0183903
-0.0181
-0.0184559
-0.0180753
-0.0184072
-0.0181009
-0.0187084
-0.0184044
-0.0194036
-0.019211
-0.0204099
-0.0192171
-0.0191556
-0.0183249
-0.0179861
-0.0177338
-0.017593
-0.0176695
-0.0179074
-0.0179439
-0.0183295
-0.017971
-0.0185214
-0.0180446
-0.0185862
-0.0180604
-0.0188489
-0.0182342
-0.0194273
-0.0189964
-0.0203017
-0.0187976
-0.0190885
-0.0180755
-0.017984
-0.0175705
-0.0175638
-0.0174932
-0.0178318
-0.0177589
-0.0182485
-0.0177946
-0.0185534
-0.0179282
-0.0187306
-0.0179174
-0.0189739
-0.0179638
-0.0194528
-0.0186511
-0.020122
-0.0183866
-0.019023
-0.0178084
-0.0179882
-0.0173628
-0.0175394
-0.0172836
-0.0177513
-0.0175453
-0.0181592
-0.017587
-0.0185651
-0.0177484
-0.0188592
-0.0176988
-0.0191118
-0.0176229
-0.0194586
-0.0180309
-0.0198513
-0.0178339
-0.0189658
-0.0174639
-0.0180187
-0.0171006
-0.0175293
-0.0170493
-0.0176746
-0.0173165
-0.018059
-0.0173511
-0.0185585
-0.0175198
-0.0189796
-0.0174193
-0.0192552
-0.0172536
-0.0194896
-0.0173889
-0.0197053
-0.0173642
-0.0189529
-0.0171364
-0.0180833
-0.0168088
-0.0175344
-0.0167938
-0.0175984
-0.0170718
-0.0179467
-0.0170903
-0.0185322
-0.0172545
-0.0190887
-0.0170941
-0.0194026
-0.0168639
-0.0195682
-0.0168784
-0.0195339
-0.0168739
-0.0189625
-0.0167485
-0.0181612
-0.0164702
-0.0175413
-0.0165146
-0.0175179
-0.0168098
-0.0178312
-0.0168143
-0.0184906
-0.0169681
-0.0191818
-0.0167361
-0.019533
-0.016455
-0.0196209
-0.0164008
-0.0195228
-0.0164595
-0.0189982
-0.0163632
-0.0182443
-0.0161079
-0.0175444
-0.016221
-0.0174371
-0.0165368
-0.0177159
-0.0165251
-0.0184321
-0.0166706
-0.0192461
-0.0163603
-0.019637
-0.0160462
-0.0196609
-0.0159962
-0.0194375
-0.0160085
-0.0190171
-0.0159317
-0.0183144
-0.0157178
-0.017529
-0.0159147
-0.017354
-0.0162515
-0.0176039
-0.0162234
-0.018357
-0.0163724
-0.019276
-0.0159797
-0.0197101
-0.0156285
-0.0196672
-0.0155537
-0.0194059
-0.0156043
-0.0190228
-0.0155052
-0.0183633
-0.0153173
-0.0174859
-0.0155997
-0.017267
-0.0159515
-0.0174971
-0.0159078
-0.0182651
-0.0160782
-0.0192612
-0.0156029
-0.0197403
-0.0152221
-0.0196481
-0.0151616
-0.0193258
-0.0151633
-0.0190028
-0.0150598
-0.0183776
-0.0149093
-0.0174055
-0.0152766
-0.0171737
-0.0156331
-0.0173952
-0.0155761
-0.0181567
-0.0157898
-0.0191974
-0.0152336
-0.0197312
-0.0148105
-0.0196063
-0.0147239
-0.0192555
-0.014739
-0.0189551
-0.014618
-0.0183474
-0.0145018
-0.0172827
-0.0149454
-0.0170717
-0.0152931
-0.0172962
-0.0152267
-0.0180331
-0.0155052
-0.0190812
-0.0148703
-0.0196761
-0.0144023
-0.0195435
-0.0143062
-0.0191778
-0.0142812
-0.0188827
-0.0141645
-0.0182672
-0.014096
-0.0171142
-0.0146042
-0.0169582
-0.014929
-0.0171964
-0.0148582
-0.0178954
-0.0152204
-0.0189125
-0.0145111
-0.0195783
-0.0139825
-0.0194679
-0.013845
-0.0190914
-0.0138144
-0.0187788
-0.0137017
-0.0181366
-0.0136911
-0.0169011
-0.0142509
-0.0168307
-0.0145403
-0.0170908
-0.0144706
-0.0177446
-0.0149315
-0.0186922
-0.0141491
-0.0194431
-0.013546
-0.0193767
-0.0133763
-0.0190087
-0.0133146
-0.0186434
-0.0132234
-0.0179562
-0.0132842
-0.0166457
-0.0138832
-0.0166862
-0.0141276
-0.0169749
-0.0140639
-0.0175809
-0.014635
-0.0184223
-0.0137806
-0.0192747
-0.0130913
-0.0192679
-0.0128759
-0.01891
-0.0127863
-0.0184785
-0.0127244
-0.01773
-0.0128713
-0.0163517
-0.0134997
-0.0165227
-0.0136926
-0.0168443
-0.0136343
-0.0174024
-0.0143284
-0.0180987
-0.0134007
-0.0190772
-0.012609
-0.0191421
-0.0123488
-0.0187938
-0.0122261
-0.018282
-0.0121967
-0.0174588
-0.0124487
-0.0160174
-0.0130992
-0.016338
-0.0132333
-0.0167017
-0.0131962
-0.0172118
-0.0140153
-0.0177344
-0.0130117
-0.0188577
-0.0121154
-0.0189996
-0.0118191
-0.0186593
-0.0116531
-0.0180609
-0.011655
-0.0171645
-0.0120186
-0.0156569
-0.012687
-0.0161338
-0.0127657
-0.0165283
-0.0126635
-0.0169835
-0.0136831
-0.0172523
-0.0125973
-0.0186063
-0.011522
-0.0188204
-0.0111932
-0.0184806
-0.0109779
-0.017792
-0.0110026
-0.0167571
-0.0115544
-0.0151859
-0.012241
-0.0158977
-0.012203
-0.0163879
-0.0122908
-0.0167861
-0.0133776
-0.0168755
-0.012215
-0.0183661
-0.0111009
-0.0186631
-0.0107625
-0.018318
-0.0104906
-0.0175536
-0.0105363
-0.0165307
-0.0111421
-0.0148598
-0.011845
-0.0156765
-0.0118103
-0.0161397
-0.0113952
-0.0164293
-0.0129883
-0.0160048
-0.0117125
-0.0180318
-0.0101404
-0.0183943
-0.00975375
-0.0180288
-0.00941689
-0.0171567
-0.0094854
-0.0157433
-0.0105694
-0.0139906
-0.0112875
-0.0153553
-0.010884
-0.0160085
-0.0112171
-0.0162548
-0.0127173
-0.0157247
-0.0113836
-0.0177969
-0.00995432
-0.0182228
-0.00959728
-0.0178418
-0.00920154
-0.0169334
-0.00925556
-0.0157297
-0.0102065
-0.0138347
-0.0109721
-0.0151473
-0.0107083
-0.0157236
-0.00981372
-0.0157134
-0.0122584
-0.014349
-0.0107417
-0.0173911
-0.00851542
-0.0179219
-0.00806513
-0.0175008
-0.00758494
-0.016415
-0.0076764
-0.0145115
-0.00951757
-0.0124368
-0.0102633
-0.0147506
-0.00929743
-0.0156027
-0.00979939
-0.0155583
-0.0120241
-0.0141633
-0.010483
-0.0171589
-0.00851772
-0.0177328
-0.00808781
-0.0172898
-0.00756728
-0.0162068
-0.00766273
-0.0146541
-0.00921771
-0.0124236
-0.0100389
-0.0145493
-0.00927865
-0.0151267
-0.00744803
-0.0146845
-0.011405
-0.0118482
-0.00952999
-0.0166398
-0.00626424
-0.0172904
-0.00568092
-0.0167861
-0.00502377
-0.0154163
-0.00509605
-0.0126706
-0.00822594
-0.0100727
-0.00902844
-0.0140188
-0.00701542
-0.0149311
-0.00763414
-0.0145245
-0.0111766
-0.0118808
-0.00933067
-0.016404
-0.00645655
-0.0170339
-0.00587937
-0.016517
-0.0052171
-0.0151837
-0.00528645
-0.0129524
-0.00794619
-0.010283
-0.00888226
-0.0138181
-0.00720721
-0.014183
-0.00390778
-0.0131376
-0.0103412
-0.00820037
-0.00786932
-0.0157812
-0.00314727
-0.0164034
-0.00231092
-0.015792
-0.00143075
-0.0140128
-0.00127273
-0.00997288
-0.00653972
-0.00658448
-0.0073987
-0.0131341
-0.00375434
-0.0140041
-0.00421954
-0.0130458
-0.0102328
-0.00842557
-0.00780169
-0.0156622
-0.00334612
-0.0161447
-0.00254905
-0.0155445
-0.00166469
-0.0138548
-0.00146667
-0.0102349
-0.0063806
-0.00691772
-0.00737875
-0.0130011
-0.00400549
-0.0127803
0.00166141
-0.0108367
-0.00908979
-0.00260891
-0.00550885
-0.014917
0.00167898
-0.0151191
0.0029487
-0.0143968
0.00416577
-0.0120833
0.0049157
-0.00583575
-0.0044038
-0.00111858
-0.00511993
-0.0120423
0.0012686
-0.0224575
-0.0223329
-0.0221082
-0.0220343
-0.02203
-0.0221176
-0.0222567
-0.0224347
-0.0226468
-0.0228945
-0.0231699
-0.0234457
-0.0236516
-0.0237683
-0.0237539
-0.0236261
-0.023417
-0.0231446
-0.0228898
-0.0225972
-0.0218503
-0.0217043
-0.0214635
-0.0213856
-0.0213819
-0.0214659
-0.021598
-0.0217614
-0.0219668
-0.0222281
-0.0225475
-0.0228491
-0.0230347
-0.0231429
-0.0230817
-0.0229436
-0.0227217
-0.0224732
-0.0222408
-0.0219715
-0.0225101
-0.0223216
-0.022087
-0.0220103
-0.0220445
-0.0221666
-0.022358
-0.0225639
-0.0228541
-0.0232107
-0.023652
-0.0239991
-0.024147
-0.0241652
-0.0239581
-0.0237415
-0.0234413
-0.0231844
-0.0229261
-0.0226677
-0.0225918
-0.0223794
-0.0221647
-0.0220891
-0.0221689
-0.0223198
-0.0225743
-0.0228127
-0.0231913
-0.0236234
-0.0241698
-0.0245153
-0.0245251
-0.0244007
-0.0240273
-0.0237769
-0.023426
-0.023219
-0.0229666
-0.0227496
-0.0236346
-0.0233958
-0.0231917
-0.0231067
-0.0232326
-0.0234062
-0.0237394
-0.0240061
-0.0245156
-0.0250167
-0.0257067
-0.0259748
-0.0258409
-0.0255522
-0.0250328
-0.0247632
-0.0243619
-0.0242084
-0.0239551
-0.0237983
-0.0239159
-0.0236558
-0.0234742
-0.0233939
-0.0235765
-0.0237862
-0.0241925
-0.0244832
-0.0251149
-0.0256409
-0.0264227
-0.0265034
-0.0262074
-0.0257809
-0.0251594
-0.0248981
-0.024457
-0.0243732
-0.024138
-0.0240545
-0.0244733
-0.0242117
-0.0240479
-0.0239575
-0.02416
-0.0243761
-0.0248359
-0.0251445
-0.0259138
-0.0264639
-0.0273659
-0.027195
-0.0267447
-0.0261768
-0.0254753
-0.0252195
-0.0247603
-0.0247588
-0.0245687
-0.0245719
-0.0245387
-0.0242691
-0.0241257
-0.023996
-0.024188
-0.0243896
-0.0248803
-0.0252371
-0.0260989
-0.0266814
-0.0276815
-0.0272213
-0.026641
-0.0259689
-0.0252114
-0.0249904
-0.0245454
-0.0246351
-0.0245115
-0.0245798
-0.0248394
-0.024574
-0.0244506
-0.0242508
-0.0243775
-0.0245203