/*--------------------------------*- C++ -*----------------------------------*\
| =========                 |                                                 |
| \\      /  F ield         | OpenFOAM: The Open Source CFD Toolbox           |
|  \\    /   O peration     | Version:  2.4.0                                 |
|   \\  /    A nd           | Web:      www.OpenFOAM.org                      |
|    \\/     M anipulation  |                                                 |
\*---------------------------------------------------------------------------*/
FoamFile
{
    version     2.0;
    format      ascii;
    class       volScalarField;
    location    "270";
    object      p;
}
// * * * * * * * * * * * * * * * * * * * * * * * * * * * * * * * * * * * * * //

dimensions      [0 2 -2 0 0 0 0];

internalField   nonuniform List<scalar> 
283312
(
-0.0062368
-0.00629699
-0.00653696
-0.0068766
-0.00722787
-0.00752122
-0.00774864
-0.00790596
-0.00802615
-0.00813332
-0.00824815
-0.00835768
-0.00842991
-0.00840963
-0.00826187
-0.00799361
-0.00761724
-0.00716826
-0.00672671
-0.00638992
0.00213638
0.00163648
0.00121311
0.000946522
0.000849163
0.000915712
0.00105949
0.00120076
0.00131142
0.00139951
0.00146775
0.00154786
0.00167704
0.00187774
0.00216108
0.00252564
0.00283691
0.00298389
0.00290459
0.00259883
-0.00232402
-0.0021659
-0.00193581
-0.00169027
-0.00149398
-0.00139418
-0.00137474
-0.00138035
-0.00142891
-0.00146994
-0.00149931
-0.00147734
-0.00140679
-0.00131084
-0.00127079
-0.0013854
-0.00163499
-0.0019355
-0.00219968
-0.00234039
0.00146534
0.00164137
0.00178735
0.00190361
0.00198726
0.00205658
0.00206343
0.00206977
0.00203645
0.00204764
0.00206614
0.00211404
0.00214006
0.00209298
0.00195966
0.00171442
0.00146345
0.00128238
0.00123248
0.00131182
-0.000749543
-0.000549781
-0.000432025
-0.00035283
-0.000348867
-0.000335851
-0.000347293
-0.000333508
-0.000363151
-0.000339168
-0.000346014
-0.00040171
-0.000583933
-0.000909381
-0.00133943
-0.00167967
-0.00176797
-0.00162338
-0.00133556
-0.00101736
0.0011952
0.00130505
0.0013631
0.00140891
0.00142286
0.00143032
0.00139587
0.00138267
0.00131839
0.00132872
0.00127558
0.00115206
0.000870335
0.000503543
0.000233574
0.00016459
0.000297632
0.000544856
0.000812838
0.00103778
-0.000152857
-0.000112819
-0.000105468
-9.91798e-05
-0.000110295
-8.51799e-05
-8.56717e-05
-5.73598e-05
-8.8747e-05
-6.34626e-05
-0.000174811
-0.000442229
-0.000859671
-0.00127361
-0.00141053
-0.00125836
-0.000944047
-0.000629758
-0.00038649
-0.000232799
0.000758118
0.000807179
0.000830691
0.000855621
0.000844099
0.00084054
0.000803071
0.000782549
0.000714015
0.000704288
0.000549849
0.000241573
-0.000160897
-0.00035685
-0.000310632
-8.28353e-05
0.000200444
0.000427056
0.000589312
0.000692986
-1.7314e-06
3.73051e-07
-1.02224e-05
-1.15816e-05
-1.29578e-05
8.87569e-06
1.06082e-05
3.01802e-05
2.4417e-06
6.08408e-06
-0.000185537
-0.000587956
-0.000988297
-0.0010741
-0.000865667
-0.000579066
-0.000316543
-0.000152858
-5.67941e-05
-1.43262e-05
0.000438703
0.000463224
0.000473954
0.000484478
0.000471736
0.000463371
0.000433071
0.000410659
0.00035767
0.00034074
0.000162498
-0.000204768
-0.000454749
-0.000441973
-0.000213295
9.32991e-06
0.000192454
0.000297219
0.000367755
0.000409349
4.31978e-05
4.13878e-05
3.26794e-05
3.46577e-05
3.39297e-05
4.89097e-05
4.91922e-05
6.52441e-05
4.81039e-05
7.27806e-05
-0.000102825
-0.000530237
-0.000710347
-0.000629128
-0.000388335
-0.000205079
-6.8146e-05
-5.48541e-06
3.1379e-05
4.21941e-05
0.000249591
0.00026129
0.00026504
0.000268203
0.000257079
0.00024832
0.000224834
0.00020714
0.000172015
0.000190889
5.5225e-05
-0.000225301
-0.000329363
-0.000223765
-4.4583e-05
6.87758e-05
0.000153809
0.000189979
0.000219965
0.000235824
5.4682e-05
5.47587e-05
5.03521e-05
5.38702e-05
5.26945e-05
6.39427e-05
6.35556e-05
8.69884e-05
8.35935e-05
0.000189786
7.60993e-05
-0.000270322
-0.000353953
-0.000288829
-0.000144294
-6.32156e-05
4.30672e-06
2.82096e-05
4.81345e-05
5.27894e-05
0.000144928
0.000150067
0.000150222
0.000150524
0.000140766
0.000132976
0.000113911
0.000101668
8.12129e-05
0.000138297
9.79135e-05
-5.06644e-05
-0.000107621
-5.25491e-05
3.3995e-05
7.06334e-05
0.000107967
0.000117638
0.000132458
0.000138193
5.27235e-05
5.44975e-05
5.30544e-05
5.66586e-05
5.54702e-05
6.44766e-05
6.47783e-05
9.33002e-05
0.000105271
0.000280116
0.000267268
-5.02891e-05
-0.000136641
-0.000139202
-7.48329e-05
-3.46874e-05
1.10673e-05
2.67547e-05
4.38563e-05
4.87676e-05
8.88351e-05
9.10185e-05
8.97761e-05
8.89977e-05
8.06648e-05
7.37933e-05
5.74929e-05
4.68482e-05
2.89844e-05
8.60099e-05
0.000196186
3.75357e-05
-1.89716e-05
-1.91122e-05
2.16611e-05
3.50105e-05
6.34125e-05
7.01485e-05
8.17896e-05
8.4813e-05
4.63148e-05
4.85432e-05
4.84592e-05
5.13335e-05
5.02468e-05
5.62767e-05
5.61013e-05
7.25196e-05
6.87023e-05
0.00010738
6.69939e-05
-3.03374e-05
-3.96994e-05
-5.44745e-05
-2.06423e-05
-1.17508e-05
1.48104e-05
2.34992e-05
3.72082e-05
4.17697e-05
5.94838e-05
6.02244e-05
5.87025e-05
5.76214e-05
5.09036e-05
4.50471e-05
3.22972e-05
2.18952e-05
9.92621e-06
9.27118e-06
4.11079e-05
1.02688e-05
1.93013e-05
1.69025e-05
3.66225e-05
3.53678e-05
4.92284e-05
4.92979e-05
5.62417e-05
5.71252e-05
3.96131e-05
4.1456e-05
4.17445e-05
4.36262e-05
4.25375e-05
4.60102e-05
4.59832e-05
5.40879e-05
5.17229e-05
5.84916e-05
3.39988e-05
-1.5062e-05
-1.6415e-05
-3.01458e-05
-8.08957e-06
-4.34134e-06
1.47162e-05
2.07472e-05
3.16659e-05
3.54164e-05
4.38453e-05
4.39457e-05
4.26404e-05
4.15628e-05
3.64234e-05
3.1721e-05
2.22591e-05
1.3379e-05
4.63995e-06
-2.16378e-06
1.1877e-05
6.80478e-06
2.31096e-05
2.08744e-05
3.44437e-05
3.05235e-05
3.90783e-05
3.75737e-05
4.21978e-05
4.22751e-05
3.42026e-05
3.53175e-05
3.55689e-05
3.65458e-05
3.52461e-05
3.68863e-05
3.66814e-05
3.99946e-05
3.93293e-05
3.81432e-05
2.57449e-05
-4.8624e-06
-5.84865e-06
-1.68009e-05
-1.67511e-06
6.68112e-07
1.48833e-05
1.94229e-05
2.79223e-05
3.06358e-05
3.51618e-05
3.49436e-05
3.4041e-05
3.30799e-05
2.92726e-05
2.57448e-05
1.89935e-05
1.19259e-05
6.07845e-06
-6.21266e-07
7.11229e-06
7.32065e-06
2.21415e-05
2.00669e-05
3.00795e-05
2.63358e-05
3.22181e-05
3.07485e-05
3.41196e-05
3.39656e-05
3.03659e-05
3.06688e-05
3.08658e-05
3.11012e-05
2.96362e-05
3.00113e-05
2.93898e-05
2.9894e-05
3.03012e-05
2.64556e-05
2.13655e-05
1.11513e-06
1.38076e-06
-6.63376e-06
4.1548e-06
5.67888e-06
1.60276e-05
1.93988e-05
2.57342e-05
2.74715e-05
3.02689e-05
2.96487e-05
2.92e-05
2.82938e-05
2.5352e-05
2.27828e-05
1.85848e-05
1.27176e-05
9.54025e-06
3.51805e-06
8.78035e-06
8.54272e-06
2.02911e-05
1.78951e-05
2.58044e-05
2.31255e-05
2.74354e-05
2.6619e-05
2.92667e-05
2.895e-05
2.78595e-05
2.73428e-05
2.76507e-05
2.74071e-05
2.57102e-05
2.53932e-05
2.4434e-05
2.31043e-05
2.41634e-05
1.95241e-05
1.84854e-05
5.01905e-06
7.02474e-06
1.2683e-06
9.24738e-06
1.02944e-05
1.74505e-05
2.00108e-05
2.4601e-05
2.54125e-05
2.74204e-05
2.63099e-05
2.63253e-05
2.5333e-05
2.29569e-05
2.1382e-05
1.85373e-05
1.37387e-05
1.30671e-05
6.89108e-06
1.18299e-05
9.2996e-06
1.86573e-05
1.61397e-05
2.22946e-05
2.08943e-05
2.41582e-05
2.41515e-05
2.62221e-05
2.57651e-05
2.6117e-05
2.51399e-05
2.57177e-05
2.4864e-05
2.32807e-05
2.25875e-05
2.17129e-05
1.89023e-05
2.05086e-05
1.54835e-05
1.71962e-05
7.84518e-06
1.13766e-05
6.66041e-06
1.31448e-05
1.38577e-05
1.87614e-05
2.08606e-05
2.38568e-05
2.4191e-05
2.58156e-05
2.37753e-05
2.45966e-05
2.35164e-05
2.12447e-05
2.03116e-05
1.84981e-05
1.41664e-05
1.53945e-05
9.11274e-06
1.42008e-05
9.92577e-06
1.77893e-05
1.48779e-05
2.01089e-05
1.96994e-05
2.17678e-05
2.27712e-05
2.4421e-05
2.36187e-05
2.5487e-05
2.3517e-05
2.46547e-05
2.32117e-05
2.13992e-05
2.14354e-05
2.00416e-05
1.64475e-05
1.9441e-05
1.29668e-05
1.74103e-05
9.17771e-06
1.45069e-05
1.04186e-05
1.55408e-05
1.66718e-05
1.95481e-05
2.17009e-05
2.33476e-05
2.30233e-05
2.44813e-05
2.19813e-05
2.36597e-05
2.19571e-05
2.00658e-05
1.96838e-05
1.85657e-05
1.35921e-05
1.6902e-05
9.88144e-06
1.59914e-05
1.00846e-05
1.77824e-05
1.37387e-05
1.87042e-05
1.89672e-05
2.02854e-05
2.21583e-05
2.28894e-05
2.22382e-05
2.53732e-05
2.16273e-05
2.42252e-05
2.26349e-05
1.99184e-05
2.05552e-05
1.93568e-05
1.4888e-05
1.93475e-05
1.15827e-05
1.81463e-05
9.95892e-06
1.67549e-05
1.2387e-05
1.7337e-05
1.87137e-05
1.92709e-05
2.24721e-05
2.34449e-05
2.19742e-05
2.39888e-05
2.01063e-05
2.31199e-05
2.09357e-05
1.84592e-05
1.96686e-05
1.83492e-05
1.25536e-05
1.83726e-05
9.06764e-06
1.77351e-05
9.20735e-06
1.79094e-05
1.2829e-05
1.75038e-05
1.89525e-05
1.88285e-05
2.19313e-05
2.17833e-05
2.05024e-05
2.52109e-05
2.0367e-05
2.43075e-05
2.16584e-05
1.87084e-05
2.05758e-05
1.89717e-05
1.31534e-05
1.99948e-05
1.02313e-05
1.93783e-05
9.84818e-06
1.87209e-05
1.29575e-05
1.80493e-05
1.99235e-05
1.90646e-05
2.32647e-05
2.2836e-05
2.10352e-05
2.41905e-05
1.74134e-05
2.30823e-05
2.05188e-05
1.58538e-05
2.01196e-05
1.80694e-05
1.05523e-05
1.95359e-05
7.32705e-06
1.91219e-05
7.64658e-06
1.84477e-05
1.13258e-05
1.62852e-05
1.9547e-05
1.65617e-05
2.19991e-05
2.11408e-05
1.79521e-05
2.52704e-05
1.84916e-05
2.48072e-05
2.08909e-05
1.70486e-05
2.12472e-05
1.85421e-05
1.091e-05
2.15072e-05
7.94879e-06
2.12434e-05
8.27609e-06
2.0383e-05
1.21526e-05
1.81334e-05
2.07806e-05
1.78594e-05
2.41474e-05
2.21095e-05
1.9622e-05
2.42702e-05
1.41795e-05
2.39134e-05
1.93675e-05
1.25196e-05
2.12797e-05
1.75705e-05
6.84735e-06
2.12239e-05
3.82953e-06
2.09401e-05
4.47015e-06
1.94315e-05
8.51971e-06
1.47727e-05
1.98389e-05
1.3719e-05
2.2686e-05
1.9616e-05
1.48724e-05
2.59314e-05
1.56451e-05
2.57771e-05
1.99156e-05
1.3855e-05
2.25386e-05
1.78313e-05
7.8806e-06
2.30695e-05
4.81797e-06
2.29441e-05
5.56457e-06
2.16156e-05
9.66549e-06
1.75373e-05
2.17853e-05
1.53724e-05
2.50991e-05
2.09365e-05
1.67763e-05
2.51951e-05
7.75292e-06
2.65041e-05
1.83782e-05
5.58101e-06
2.44743e-05
1.69667e-05
-9.97952e-07
2.47557e-05
-3.46469e-06
2.44194e-05
-2.41593e-06
2.18325e-05
2.11167e-06
1.21772e-05
2.12313e-05
7.63215e-06
2.47491e-05
1.79541e-05
8.92967e-06
2.63181e-05
1.05012e-05
2.76144e-05
1.77459e-05
8.38515e-06
2.51323e-05
1.60638e-05
1.94089e-06
2.52445e-05
-1.00586e-06
2.49594e-05
4.93659e-08
2.27699e-05
4.3995e-06
1.5661e-05
2.19705e-05
1.03205e-05
2.63657e-05
1.81175e-05
1.19439e-05
2.83693e-05
-6.55678e-06
3.41513e-05
1.45342e-05
-1.17183e-05
3.40895e-05
1.39404e-05
-1.96e-05
3.23959e-05
-2.03478e-05
3.13409e-05
-1.86617e-05
2.71165e-05
-1.38153e-05
6.93015e-06
2.46991e-05
-6.48227e-06
3.10191e-05
1.30425e-05
-5.40209e-06
-0.0109266
-0.0105339
-0.010227
-0.0100143
-0.0098967
-0.00988101
-0.00999782
-0.0102282
-0.0105664
-0.0109886
-0.0114733
-0.0119702
-0.0124163
-0.0127343
-0.012871
-0.0128368
-0.0126415
-0.0122991
-0.0118586
-0.0113821
0.00233984
0.00229543
0.00216469
0.00200328
0.00184922
0.00175812
0.00168873
0.00160324
0.00148085
0.0013264
0.00112436
0.000901237
0.000711573
0.000616708
0.000676733
0.000941535
0.00131789
0.0017112
0.00204456
0.00226165
-0.00234432
-0.00210428
-0.00191326
-0.00177239
-0.00171829
-0.00177068
-0.00189595
-0.00204306
-0.00225854
-0.00251232
-0.00284225
-0.00319335
-0.00349851
-0.00367315
-0.00371526
-0.00364572
-0.00346426
-0.00319216
-0.00289502
-0.00260714
0.00289016
0.00295626
0.0029829
0.00300244
0.0030087
0.00301012
0.00294411
0.00286681
0.00270096
0.00250904
0.00218215
0.00181312
0.00150397
0.00136984
0.00149331
0.00174921
0.00208517
0.00238922
0.00262368
0.00278814
-0.000467793
-0.00031781
-0.000242682
-0.000193339
-0.000228924
-0.00024313
-0.000303269
-0.000348794
-0.000502713
-0.000697075
-0.00111513
-0.00161981
-0.00205099
-0.00228672
-0.0023161
-0.00213776
-0.00178228
-0.00137468
-0.000993265
-0.000684986
0.00200742
0.00211023
0.00216184
0.00220855
0.00220569
0.00219623
0.0021139
0.00204278
0.00184811
0.00162531
0.00111551
0.000582863
0.000205693
0.000140183
0.000348082
0.000702129
0.00107912
0.00140724
0.0016721
0.00187145
5.31787e-05
9.85284e-05
0.000103786
0.000109184
8.74288e-05
0.000109848
7.97262e-05
7.25505e-05
-7.34036e-05
-0.00028203
-0.000882388
-0.00151936
-0.0019209
-0.00198286
-0.00169547
-0.0012487
-0.000794161
-0.000438671
-0.000186405
-2.94493e-05
0.00124465
0.00131531
0.00134845
0.0013829
0.00135892
0.00134537
0.0012687
0.00120293
0.00101591
0.000766221
0.000120069
-0.000472114
-0.000731667
-0.000554465
-0.000167245
0.000235841
0.000591953
0.000844171
0.00102964
0.00115722
0.00016851
0.000179176
0.000167423
0.000169108
0.000161837
0.00018609
0.000166181
0.000161093
3.83743e-05
-0.000182475
-0.000857962
-0.00148762
-0.00169362
-0.00143501
-0.000959012
-0.00055167
-0.000228757
-3.71622e-05
8.42944e-05
0.000144653
0.000736801
0.000777117
0.000793536
0.000809358
0.000786809
0.000771668
0.000712053
0.000656988
0.00051364
0.000287028
-0.00033479
-0.000836927
-0.000841845
-0.00054462
-0.000127906
0.000165714
0.000394151
0.000524554
0.000624362
0.00068885
0.000175717
0.000179925
0.000170023
0.000176014
0.000170746
0.000189018
0.000174345
0.000178076
9.65611e-05
-4.86298e-05
-0.000621092
-0.00114876
-0.00108628
-0.000785259
-0.000403418
-0.000171893
4.00179e-06
8.53713e-05
0.000143543
0.000166639
0.000432787
0.000453766
0.000459809
0.000466076
0.000447044
0.000434091
0.000390425
0.000354319
0.000263166
0.000136855
-0.000325914
-0.000615631
-0.000501122
-0.000234902
3.50113e-05
0.000170075
0.00028164
0.000329812
0.000379203
0.000407811
0.000153837
0.000158697
0.000153947
0.000161433
0.000156782
0.000172249
0.000163019
0.000189307
0.000154736
0.000179463
-0.000199073
-0.000572222
-0.000485078
-0.000324777
-0.000116335
-2.54835e-05
6.53938e-05
9.75454e-05
0.000133076
0.000145497
0.000260186
0.000270829
0.000271642
0.000274058
0.00025788
0.0002478
0.000214934
0.000196159
0.000149419
0.000140574
-8.09839e-05
-0.000196666
-0.000123631
-8.74926e-06
0.000112188
0.000142958
0.000193994
0.000206288
0.000233907
0.000246382
0.000126278
0.000132164
0.000131081
0.000138244
0.000134393
0.000147938
0.000143594
0.000184562
0.000190968
0.000364913
0.000228953
-0.000145874
-0.000153875
-0.000139244
-4.81517e-05
-1.07896e-05
5.3826e-05
7.48327e-05
0.000105496
0.000116434
0.00016501
0.000170718
0.000169514
0.000170249
0.000156636
0.000148268
0.000121369
0.000108836
7.74525e-05
0.00014442
0.000251665
8.8086e-06
-2.24589e-05
-1.48104e-05
5.41466e-05
6.74531e-05
0.000114351
0.000125027
0.000148159
0.000155789
0.000101906
0.000107454
0.000107958
0.000113661
0.000110388
0.000119847
0.000116109
0.00014097
0.000130228
0.000185789
0.000109018
-6.06935e-05
-5.45817e-05
-7.59546e-05
-1.47946e-05
-4.52946e-06
4.22964e-05
5.67296e-05
8.26979e-05
9.21727e-05
0.000113659
0.000116632
0.000114942
0.000114912
0.000103934
9.67842e-05
7.5781e-05
6.28138e-05
4.1187e-05
4.31635e-05
7.54546e-05
4.94503e-06
2.94499e-05
2.17937e-05
6.16353e-05
5.81537e-05
8.64564e-05
8.82352e-05
0.000103874
0.000107514
8.33449e-05
8.75356e-05
8.83295e-05
9.22081e-05
8.92209e-05
9.48271e-05
9.20483e-05
0.000104134
9.67479e-05
0.000106309
6.37159e-05
-2.5433e-05
-1.711e-05
-4.10508e-05
4.0452e-07
3.53236e-06
3.79825e-05
4.74929e-05
6.7869e-05
7.49956e-05
8.55285e-05
8.69483e-05
8.5454e-05
8.50455e-05
7.65518e-05
7.07093e-05
5.50545e-05
4.30807e-05
2.73318e-05
1.71965e-05
3.12642e-05
9.23353e-06
3.98555e-05
3.12015e-05
5.92945e-05
5.15417e-05
7.02424e-05
6.87597e-05
7.96247e-05
8.11714e-05
7.03619e-05
7.28708e-05
7.34781e-05
7.56964e-05
7.26294e-05
7.54032e-05
7.29826e-05
7.74937e-05
7.37884e-05
7.01873e-05
4.90809e-05
-5.28653e-06
7.98879e-07
-1.92456e-05
9.92726e-06
1.09664e-05
3.66103e-05
4.31907e-05
5.87512e-05
6.3554e-05
6.96177e-05
7.00031e-05
6.90118e-05
6.83979e-05
6.19621e-05
5.75231e-05
4.6287e-05
3.61391e-05
2.58168e-05
1.43546e-05
2.29226e-05
1.42972e-05
4.09583e-05
3.31127e-05
5.39357e-05
4.65226e-05
5.97407e-05
5.7811e-05
6.574e-05
6.62798e-05
6.18581e-05
6.26562e-05
6.31638e-05
6.39974e-05
6.08474e-05
6.16824e-05
5.92042e-05
5.92442e-05
5.82571e-05
5.0329e-05
4.2011e-05
6.45991e-06
1.267e-05
-2.59972e-06
1.86271e-05
1.87839e-05
3.74516e-05
4.20813e-05
5.35568e-05
5.63981e-05
6.05766e-05
5.98408e-05
5.95185e-05
5.86359e-05
5.35237e-05
5.02968e-05
4.31168e-05
3.41911e-05
2.88427e-05
1.78178e-05
2.49513e-05
1.8459e-05
3.97318e-05
3.22434e-05
4.85507e-05
4.30237e-05
5.26806e-05
5.15474e-05
5.75498e-05
5.73635e-05
5.65919e-05
5.56982e-05
5.64653e-05
5.62974e-05
5.2913e-05
5.27406e-05
5.02067e-05
4.72982e-05
4.83571e-05
3.90299e-05
3.81081e-05
1.40342e-05
2.17753e-05
1.02465e-05
2.62068e-05
2.61228e-05
3.90908e-05
4.2599e-05
5.08176e-05
5.19394e-05
5.53704e-05
5.33943e-05
5.38905e-05
5.25345e-05
4.82653e-05
4.64187e-05
4.14778e-05
3.36554e-05
3.29176e-05
2.13447e-05
2.94815e-05
2.10019e-05
3.84422e-05
3.13621e-05
4.41831e-05
4.09268e-05
4.80069e-05
4.81247e-05
5.25607e-05
5.18026e-05
5.32331e-05
5.11067e-05
5.25275e-05
5.1157e-05
4.79527e-05
4.73641e-05
4.5223e-05
3.98877e-05
4.28272e-05
3.25612e-05
3.68887e-05
1.92779e-05
2.88167e-05
1.90427e-05
3.20263e-05
3.19534e-05
4.0734e-05
4.3849e-05
4.91579e-05
4.92809e-05
5.25312e-05
4.86171e-05
5.06119e-05
4.87283e-05
4.45737e-05
4.38101e-05
4.04806e-05
3.28771e-05
3.59331e-05
2.36473e-05
3.33516e-05
2.27058e-05
3.81058e-05
3.06949e-05
4.15937e-05
4.02274e-05
4.46415e-05
4.65014e-05
4.96527e-05
4.80942e-05
5.19402e-05
4.77167e-05
5.04397e-05
4.78283e-05
4.42262e-05
4.49605e-05
4.22237e-05
3.53262e-05
4.14363e-05
2.84258e-05
3.79713e-05
2.17828e-05
3.40351e-05
2.50399e-05
3.56462e-05
3.66563e-05
4.1637e-05
4.53097e-05
4.80832e-05
4.69924e-05
5.04771e-05
4.50773e-05
4.89432e-05
4.57351e-05
4.19112e-05
4.23675e-05
4.00112e-05
3.09354e-05
3.82352e-05
2.39359e-05
3.65897e-05
2.31908e-05
3.89191e-05
2.9712e-05
3.99798e-05
4.00725e-05
4.24108e-05
4.60848e-05
4.72816e-05
4.55755e-05
5.16978e-05
4.40488e-05
4.96721e-05
4.63346e-05
4.1189e-05
4.3423e-05
4.08695e-05
3.20721e-05
4.17594e-05
2.57094e-05
3.99183e-05
2.2895e-05
3.79522e-05
2.8024e-05
3.82847e-05
4.0191e-05
4.08936e-05
4.68054e-05
4.79402e-05
4.48839e-05
4.98536e-05
4.13976e-05
4.82005e-05
4.37181e-05
3.86544e-05
4.22284e-05
3.93289e-05
2.82891e-05
4.08036e-05
2.17756e-05
3.99192e-05
2.16478e-05
3.99053e-05
2.84915e-05
3.84485e-05
4.07947e-05
3.99506e-05
4.62807e-05
4.54845e-05
4.24546e-05
5.16397e-05
4.11025e-05
4.99563e-05
4.44315e-05
3.83531e-05
4.35887e-05
3.99936e-05
2.83384e-05
4.33974e-05
2.2621e-05
4.26876e-05
2.20868e-05
4.14747e-05
2.84684e-05
3.91933e-05
4.25156e-05
3.99129e-05
4.842e-05
4.67542e-05
4.26945e-05
5.03798e-05
3.63108e-05
4.85078e-05
4.25763e-05
3.37161e-05
4.32186e-05
3.8561e-05
2.39295e-05
4.32767e-05
1.78129e-05
4.29539e-05
1.84345e-05
4.15057e-05
2.57425e-05
3.66169e-05
4.22553e-05
3.59169e-05
4.69794e-05
4.4151e-05
3.78701e-05
5.20578e-05
3.68726e-05
5.12106e-05
4.27628e-05
3.4418e-05
4.51486e-05
3.8974e-05
2.33205e-05
4.6562e-05
1.75428e-05
4.65363e-05
1.83983e-05
4.46596e-05
2.61961e-05
3.89651e-05
4.42879e-05
3.69875e-05
5.03186e-05
4.51588e-05
3.93919e-05
5.09113e-05
2.98819e-05
5.04622e-05
4.02828e-05
2.71057e-05
4.57636e-05
3.73525e-05
1.64739e-05
4.68826e-05
1.05871e-05
4.68661e-05
1.20233e-05
4.38339e-05
2.02121e-05
3.40531e-05
4.32493e-05
3.03597e-05
4.87274e-05
4.12591e-05
3.19452e-05
5.35176e-05
3.04573e-05
5.36831e-05
4.05712e-05
2.74013e-05
4.82941e-05
3.73413e-05
1.61525e-05
5.02898e-05
1.01933e-05
5.05145e-05
1.19471e-05
4.74637e-05
2.03947e-05
3.74336e-05
4.63066e-05
3.13383e-05
5.26327e-05
4.25247e-05
3.32817e-05
5.28493e-05
1.80174e-05
5.55609e-05
3.78709e-05
1.43259e-05
5.20628e-05
3.56738e-05
2.02779e-06
5.36503e-05
-3.13047e-06
5.35287e-05
-8.32349e-07
4.84021e-05
8.3193e-06
2.95672e-05
4.58453e-05
1.91868e-05
5.28103e-05
3.76377e-05
2.10708e-05
5.49036e-05
1.96705e-05
5.82456e-05
3.63133e-05
1.57981e-05
5.44188e-05
3.38522e-05
3.42377e-06
5.56142e-05
-2.33195e-06
5.54996e-05
1.24792e-07
5.05895e-05
9.19068e-06
3.36834e-05
4.74067e-05
2.0855e-05
5.59951e-05
3.70153e-05
2.3244e-05
5.81549e-05
-4.82135e-06
6.85194e-05
3.11993e-05
-1.29572e-05
6.84062e-05
3.03796e-05
-2.74619e-05
6.68166e-05
-3.0279e-05
6.55279e-05
-2.68605e-05
5.74005e-05
-1.70888e-05
2.14971e-05
5.16541e-05
-3.19927e-06
6.331e-05
2.90472e-05
-1.41502e-06
-0.0134507
-0.0129011
-0.0124506
-0.0121217
-0.0119281
-0.0118982
-0.0120498
-0.012361
-0.0128211
-0.0133948
-0.0140467
-0.0147091
-0.015301
-0.0157286
-0.0159256
-0.0158996
-0.0156639
-0.0152384
-0.0146802
-0.0140617
0.00196059
0.00201815
0.00195138
0.0018163
0.00165788
0.00154072
0.0014041
0.00122875
0.000993577
0.000708504
0.000362331
-4.73339e-06
-0.000317077
-0.000490902
-0.000447357
-0.000136702
0.000342337
0.000878294
0.00137234
0.0017468
-0.00274654
-0.00243449
-0.00221297
-0.00207305
-0.00205443
-0.0021583
-0.00235248
-0.0025893
-0.00292117
-0.00331618
-0.00381441
-0.00433679
-0.00478138
-0.0050242
-0.00505706
-0.00487988
-0.00452423
-0.00405323
-0.00356777
-0.00312374
0.00336178
0.00344159
0.00346252
0.00346753
0.00344646
0.0034041
0.00327938
0.00312505
0.0028478
0.00251275
0.00199911
0.00144637
0.00101739
0.000878736
0.0011255
0.00156818
0.00211302
0.00260016
0.00296961
0.00321825
-0.000295536
-0.00013416
-6.063e-05
-2.15703e-05
-8.02427e-05
-0.000119399
-0.000227627
-0.000339416
-0.000604374
-0.0009529
-0.00159001
-0.00230126
-0.00283234
-0.00304159
-0.00291477
-0.00252106
-0.00195904
-0.00139231
-0.000907656
-0.000540946
0.00245719
0.00257775
0.00263508
0.002683
0.00266133
0.00262887
0.00249828
0.00236211
0.00205258
0.00166645
0.000914015
0.00018519
-0.000247349
-0.000196432
0.00020281
0.000754158
0.00128755
0.00172131
0.00205332
0.00229501
0.000280371
0.000339735
0.00034818
0.00035201
0.000320973
0.000329814
0.000262343
0.000201887
-5.28184e-05
-0.000428107
-0.00129436
-0.00212289
-0.00254607
-0.00246087
-0.00196995
-0.00134447
-0.000760092
-0.000322002
-1.58672e-05
0.000176174
0.00157004
0.00165933
0.00169978
0.00173704
0.00170074
0.00167135
0.00155592
0.00143631
0.00114213
0.000723535
-0.000193227
-0.000947801
-0.00116792
-0.000833405
-0.000257189
0.000285057
0.000741232
0.00105929
0.00129382
0.00145726
0.000362762
0.000385188
0.000375807
0.000380036
0.000364889
0.000380723
0.000331654
0.00028457
6.77878e-05
-0.000313952
-0.0012612
-0.00203669
-0.00216755
-0.00174111
-0.00109493
-0.000573807
-0.000169021
7.46074e-05
0.000235111
0.000321916
0.000958221
0.00101128
0.00103175
0.0010491
0.00101747
0.000991821
0.000903375
0.000808424
0.000580005
0.0002056
-0.0006706
-0.001277
-0.00118146
-0.00073109
-0.00017594
0.000203121
0.000496954
0.000669417
0.00080393
0.000892881
0.000324268
0.000336626
0.000328004
0.000336525
0.00032506
0.000338384
0.000302992
0.000279764
0.000130215
-0.00013723
-0.000942781
-0.00155603
-0.0013809
-0.000950551
-0.000455705
-0.000160818
6.67496e-05
0.000178976
0.000263592
0.000303687
0.000581216
0.000610047
0.000617786
0.00062525
0.000599163
0.000579794
0.000516544
0.00045649
0.00030978
8.39752e-05
-0.000575072
-0.000904312
-0.00068691
-0.000318601
3.42821e-05
0.000210982
0.000361185
0.000431476
0.000502684
0.00054554
0.000262853
0.000273446
0.000269518
0.000279216
0.00026985
0.000283434
0.000261272
0.000277199
0.000204505
0.000169517
-0.000372971
-0.000788343
-0.000615955
-0.000388652
-0.000117745
3.03684e-08
0.000121882
0.000170169
0.000223464
0.000246479
0.000361142
0.000376771
0.000378185
0.000381687
0.000359993
0.000346393
0.000300755
0.000271517
0.000196385
0.000144606
-0.000190313
-0.000320356
-0.000182831
-2.46215e-05
0.000137079
0.000181243
0.000254781
0.000277533
0.000319528
0.000340358
0.000205875
0.000215998
0.000215543
0.000224617
0.000217166
0.000230708
0.000218832
0.000260628
0.000252856
0.000422601
0.000205137
-0.000227109
-0.000192905
-0.000161154
-3.65165e-05
1.05022e-05
9.69544e-05
0.00012751
0.000171698
0.000189888
0.000236301
0.000245394
0.00024436
0.000246022
0.000227969
0.000217555
0.000181566
0.000165191
0.000119646
0.00018704
0.000272698
-3.02016e-05
-4.05125e-05
-2.47005e-05
7.10095e-05
9.1235e-05
0.000156797
0.000174378
0.000208774
0.000221981
0.000161377
0.000170028
0.000170969
0.000178157
0.000171967
0.000181718
0.000172688
0.000199157
0.0001793
0.000239027
0.000132457
-8.7644e-05
-6.85511e-05
-9.14273e-05
-6.24359e-06
8.97871e-06
7.3927e-05
9.51745e-05
0.000132107
0.000146812
0.000166856
0.000172124
0.000170418
0.000171078
0.000156487
0.000147853
0.000119964
0.000104115
7.32517e-05
7.37928e-05
9.75088e-05
-5.20391e-06
3.11324e-05
2.07014e-05
7.89589e-05
7.72102e-05
0.000119532
0.000125317
0.000149563
0.000156895
0.000129771
0.00013607
0.000137091
0.000141971
0.000136502
0.000142143
0.000135361
0.000147609
0.000134224
0.000142441
8.58875e-05
-3.34309e-05
-1.69063e-05
-4.67271e-05
1.15988e-05
1.64978e-05
6.45762e-05
7.83171e-05
0.000107065
0.00011773
0.000127741
0.00013061
0.000129018
0.000129029
0.000117591
0.000110537
8.96803e-05
7.48401e-05
5.26955e-05
3.85479e-05
4.84976e-05
9.92511e-06
5.04998e-05
3.69702e-05
7.82981e-05
6.98749e-05
9.87691e-05
9.9364e-05
0.000116633
0.000120514
0.000108591
0.000112338
0.000113018
0.00011578
0.000110512
0.000113031
0.000107451
0.000110977
0.000103423
9.61052e-05
6.83921e-05
-4.22958e-06
8.42944e-06
-1.7503e-05
2.40219e-05
2.52935e-05
6.1023e-05
7.01554e-05
9.19485e-05
9.89815e-05
0.000105164
0.00010628
0.000105199
0.000104731
9.58643e-05
9.04323e-05
7.53318e-05
6.23948e-05
4.80093e-05
3.18453e-05
3.89785e-05
2.06353e-05
5.56762e-05
4.30765e-05
7.3775e-05
6.50344e-05
8.57715e-05
8.4988e-05
9.76816e-05
9.96132e-05
9.50679e-05
9.63201e-05
9.68728e-05
9.78407e-05
9.26873e-05
9.30913e-05
8.80752e-05
8.64114e-05
8.32513e-05
7.09564e-05
6.01949e-05
1.2871e-05
2.49e-05
4.64552e-06
3.51915e-05
3.50009e-05
6.10444e-05
6.7286e-05
8.33194e-05
8.74179e-05
9.21435e-05
9.14409e-05
9.11502e-05
9.0126e-05
8.29111e-05
7.89104e-05
6.89566e-05
5.72825e-05
4.9859e-05
3.40978e-05
4.16697e-05
2.82536e-05
5.6602e-05
4.487e-05
6.88632e-05
6.21445e-05
7.7355e-05
7.70496e-05
8.65736e-05
8.70691e-05
8.68203e-05
8.56267e-05
8.65856e-05
8.61825e-05
8.09049e-05
8.03048e-05
7.57215e-05
7.06007e-05
7.09329e-05
5.70299e-05
5.63302e-05
2.39551e-05
3.72628e-05
2.15572e-05
4.47609e-05
4.4262e-05
6.24837e-05
6.71954e-05
7.86641e-05
8.02927e-05
8.46189e-05
8.19587e-05
8.27661e-05
8.09306e-05
7.47457e-05
7.24318e-05
6.54212e-05
5.48058e-05
5.37615e-05
3.72926e-05
4.74727e-05
3.30068e-05
5.67911e-05
4.58956e-05
6.49106e-05
6.09094e-05
7.19903e-05
7.29892e-05
7.99219e-05
7.92862e-05
8.17425e-05
7.85655e-05
8.05508e-05
7.852e-05
7.34912e-05
7.26664e-05
6.88688e-05
6.08224e-05
6.44401e-05
4.92362e-05
5.58663e-05
3.15369e-05
4.67583e-05
3.31641e-05
5.20721e-05
5.17847e-05
6.41357e-05
6.8462e-05
7.59169e-05
7.59873e-05
8.05226e-05
7.5042e-05
7.79097e-05
7.51464e-05
6.90744e-05
6.82696e-05
6.33082e-05
5.26292e-05
5.70561e-05
3.93723e-05
5.27003e-05
3.60934e-05
5.77545e-05
4.65861e-05
6.27792e-05
6.12093e-05
6.82068e-05
7.13289e-05
7.60733e-05
7.41196e-05
7.96129e-05
7.33695e-05
7.73479e-05
7.35739e-05
6.80259e-05
6.90931e-05
6.48301e-05
5.46485e-05
6.31166e-05
4.42259e-05
5.81372e-05
3.53225e-05
5.38823e-05
4.09724e-05
5.66812e-05
5.79393e-05
6.49675e-05
7.02663e-05
7.4187e-05
7.25003e-05
7.78107e-05
6.98104e-05
7.54631e-05
7.08161e-05
6.49109e-05
6.60238e-05
6.22092e-05
4.93716e-05
5.99513e-05
3.91275e-05
5.73166e-05
3.71792e-05
5.98239e-05
4.63587e-05
6.15288e-05
6.20103e-05
6.55722e-05
7.12147e-05
7.30569e-05
7.04821e-05
7.9066e-05
6.80402e-05
7.61341e-05
7.1083e-05
6.3525e-05
6.70211e-05
6.29258e-05
4.99793e-05
6.40521e-05
4.05881e-05
6.14569e-05
3.68419e-05
5.93422e-05
4.4778e-05
5.99326e-05
6.26757e-05
6.37962e-05
7.22765e-05
7.36374e-05
6.93002e-05
7.70029e-05
6.4458e-05
7.44885e-05
6.78585e-05
6.01298e-05
6.57086e-05
6.10854e-05
4.52357e-05
6.34357e-05
3.58397e-05
6.21161e-05
3.53401e-05
6.19621e-05
4.52224e-05
6.00845e-05
6.36373e-05
6.2403e-05
7.18823e-05
7.07007e-05
6.61116e-05
7.90087e-05
6.34041e-05
7.64931e-05
6.83287e-05
5.90997e-05
6.73033e-05
6.16433e-05
4.45055e-05
6.66994e-05
3.60618e-05
6.57561e-05
3.54577e-05
6.42406e-05
4.5068e-05
6.09476e-05
6.59655e-05
6.2004e-05
7.45322e-05
7.18948e-05
6.58083e-05
7.76739e-05
5.73112e-05
7.50615e-05
6.59555e-05
5.3214e-05
6.71182e-05
5.98908e-05
3.87958e-05
6.70951e-05
2.99808e-05
6.67111e-05
3.08551e-05
6.47171e-05
4.16078e-05
5.7943e-05
6.5936e-05
5.70204e-05
7.31933e-05
6.87028e-05
5.98087e-05
7.96571e-05
5.69564e-05
7.83287e-05
6.58223e-05
5.30027e-05
6.96096e-05
6.01347e-05
3.70101e-05
7.13022e-05
2.86032e-05
7.13626e-05
2.99781e-05
6.87278e-05
4.14753e-05
6.03421e-05
6.85417e-05
5.74876e-05
7.72402e-05
6.94777e-05
6.06477e-05
7.85123e-05
4.81531e-05
7.78953e-05
6.26947e-05
4.38304e-05
7.07904e-05
5.80969e-05
2.82096e-05
7.2327e-05
1.96961e-05
7.24507e-05
2.18671e-05
6.82704e-05
3.3924e-05
5.45767e-05
6.76175e-05
4.92433e-05
7.58211e-05
6.46747e-05
5.14539e-05
8.16153e-05
4.74025e-05
8.20183e-05
6.25637e-05
4.26717e-05
7.42978e-05
5.77564e-05
2.61896e-05
7.68887e-05
1.76427e-05
7.7326e-05
2.03421e-05
7.28612e-05
3.28528e-05
5.78673e-05
7.13635e-05
4.91194e-05
8.06472e-05
6.55388e-05
5.16691e-05
8.10423e-05
3.2254e-05
8.47582e-05
5.90806e-05
2.67359e-05
7.93387e-05
5.55572e-05
8.92091e-06
8.14412e-05
1.28333e-06
8.14661e-05
4.7022e-06
7.43764e-05
1.8072e-05
4.86163e-05
7.10513e-05
3.43839e-05
8.12982e-05
5.9415e-05
3.68858e-05
8.36344e-05
3.23544e-05
8.86071e-05
5.67853e-05
2.64106e-05
8.30647e-05
5.30877e-05
8.30126e-06
8.46229e-05
1.00949e-07
8.4628e-05
3.82373e-06
7.74766e-05
1.72213e-05
5.25368e-05
7.32161e-05
3.46026e-05
8.55384e-05
5.80126e-05
3.76518e-05
8.72095e-05
4.56517e-06
0.000100614
5.0676e-05
-6.13934e-06
9.94424e-05
4.89637e-05
-2.6676e-05
9.77151e-05
-3.16273e-05
9.63549e-05
-2.6793e-05
8.52892e-05
-1.26479e-05
3.85852e-05
7.80073e-05
7.35253e-06
9.39256e-05
4.84433e-05
9.80636e-06
-0.014859
-0.014233
-0.0137178
-0.0133412
-0.0131252
-0.013106
-0.0132918
-0.01366
-0.0141971
-0.0148607
-0.015607
-0.0163576
-0.0170206
-0.0174925
-0.0177027
-0.0176594
-0.0173791
-0.0168887
-0.0162532
-0.015552
0.00145056
0.00155951
0.00152918
0.00141461
0.00126543
0.00114017
0.000963333
0.000730603
0.000420057
4.78499e-05
-0.00039171
-0.000846551
-0.00122638
-0.00143511
-0.00138344
-0.00102931
-0.000481923
0.000137294
0.000717034
0.00117049
-0.00309779
-0.00273756
-0.00249323
-0.0023503
-0.00235625
-0.0024939
-0.00273601
-0.00303771