/*--------------------------------*- C++ -*----------------------------------*\
| =========                 |                                                 |
| \\      /  F ield         | OpenFOAM: The Open Source CFD Toolbox           |
|  \\    /   O peration     | Version:  2.4.0                                 |
|   \\  /    A nd           | Web:      www.OpenFOAM.org                      |
|    \\/     M anipulation  |                                                 |
\*---------------------------------------------------------------------------*/
FoamFile
{
    version     2.0;
    format      ascii;
    class       volScalarField;
    location    "390";
    object      p;
}
// * * * * * * * * * * * * * * * * * * * * * * * * * * * * * * * * * * * * * //

dimensions      [0 2 -2 0 0 0 0];

internalField   nonuniform List<scalar> 
283312
(
-0.00626433
-0.00632284
-0.00656242
-0.00690303
-0.00725665
-0.00755409
-0.00778724
-0.00795084
-0.00807719
-0.00818971
-0.00830857
-0.00842033
-0.00849293
-0.00847066
-0.00832004
-0.00804814
-0.00766598
-0.00721035
-0.00676251
-0.00642072
0.00215143
0.00164813
0.00122044
0.000949598
0.000848723
0.000912811
0.00105459
0.00119463
0.00130472
0.00139236
0.00145987
0.00153895
0.00166749
0.00186816
0.00215398
0.00252405
0.00284067
0.00299355
0.00291884
0.00261497
-0.0023009
-0.00215083
-0.00192837
-0.00168894
-0.00149736
-0.00140118
-0.00138385
-0.00139139
-0.00144186
-0.0014851
-0.00151691
-0.00149661
-0.00142519
-0.00132457
-0.0012765
-0.00138014
-0.00161709
-0.00190807
-0.00216816
-0.0023109
0.00148253
0.00165423
0.00179731
0.00191167
0.00199439
0.00206275
0.00206922
0.0020751
0.00204121
0.00205113
0.0020676
0.00211486
0.0021448
0.00210533
0.0019815
0.00174427
0.00149723
0.00131542
0.00126118
0.00133458
-0.000743295
-0.00054572
-0.000429581
-0.00035186
-0.000349068
-0.000336909
-0.000349029
-0.000336018
-0.000366687
-0.000344662
-0.000354862
-0.000410986
-0.00058599
-0.000897942
-0.00131724
-0.00165321
-0.00174396
-0.00160488
-0.00132238
-0.00100827
0.00120374
0.00131282
0.00137038
0.00141576
0.00142935
0.00143654
0.00140189
0.00138855
0.00132378
0.00133269
0.00127564
0.00115095
0.000877434
0.000522978
0.000261477
0.000191791
0.00031951
0.000560962
0.000824936
0.00104755
-0.000150009
-0.0001107
-0.000103932
-9.82628e-05
-0.000109647
-8.46837e-05
-8.52235e-05
-5.68071e-05
-8.85736e-05
-6.46848e-05
-0.000181576
-0.000453883
-0.000864942
-0.00126854
-0.00139971
-0.00124783
-0.000936079
-0.000624011
-0.00038207
-0.000229264
0.000763122
0.000811983
0.000835358
0.000860146
0.000848374
0.000844694
0.000807071
0.000786578
0.000717577
0.000706789
0.000546928
0.000232364
-0.000171876
-0.000361309
-0.000308786
-7.76637e-05
0.000206397
0.000432817
0.000594801
0.00069818
-6.56034e-08
1.60139e-06
-9.33585e-06
-1.09842e-05
-1.24245e-05
9.47972e-06
1.1293e-05
3.11565e-05
3.32347e-06
6.50375e-06
-0.000188459
-0.000595986
-0.00100069
-0.00108383
-0.000869442
-0.000578925
-0.000314584
-0.000150436
-5.44063e-05
-1.22758e-05
0.000441369
0.000465853
0.000476571
0.000487005
0.000474151
0.000465737
0.000435302
0.000412946
0.000359611
0.000342296
0.000161516
-0.000209661
-0.000461649
-0.000447553
-0.000215291
9.80793e-06
0.000194346
0.000299628
0.000370386
0.000411995
4.40638e-05
4.20174e-05
3.31263e-05
3.49752e-05
3.42179e-05
4.9255e-05
4.95891e-05
6.58506e-05
4.86809e-05
7.33015e-05
-0.000103986
-0.000534297
-0.000716011
-0.000633615
-0.000390235
-0.000205234
-6.72948e-05
-4.32899e-06
3.25893e-05
4.32443e-05
0.00025089
0.000262603
0.000266377
0.000269501
0.000258324
0.000249552
0.000225961
0.00020834
0.000172973
0.000191919
5.5071e-05
-0.000227413
-0.00033196
-0.000225898
-4.53592e-05
6.8879e-05
0.000154533
0.000190967
0.000221134
0.000237054
5.50908e-05
5.50461e-05
5.05488e-05
5.39911e-05
5.27929e-05
6.40472e-05
6.3672e-05
8.72019e-05
8.38142e-05
0.000190133
7.55591e-05
-0.000272012
-0.000356048
-0.000290445
-0.000144983
-6.33046e-05
4.64334e-06
2.86868e-05
4.86754e-05
5.32674e-05
0.000145497
0.000150654
0.000150836
0.000151122
0.00014134
0.000133546
0.0001144
0.000102216
8.15863e-05
0.000138894
9.8039e-05
-5.15284e-05
-0.00010866
-5.34437e-05
3.36319e-05
7.05658e-05
0.000108168
0.000117965
0.00013291
0.000138697
5.28834e-05
5.4595e-05
5.31104e-05
5.66615e-05
5.54507e-05
6.44285e-05
6.47127e-05
9.32325e-05
0.000105191
0.000280055
0.000266972
-5.07219e-05
-0.000137067
-0.000139616
-7.51265e-05
-3.4795e-05
1.11402e-05
2.6894e-05
4.40525e-05
4.89435e-05
8.90314e-05
9.12252e-05
9.00051e-05
8.92152e-05
8.087e-05
7.39899e-05
5.76253e-05
4.6997e-05
2.89564e-05
8.60147e-05
0.000195868
3.701e-05
-1.94908e-05
-1.94869e-05
2.14718e-05
3.48647e-05
6.33813e-05
7.01766e-05
8.19011e-05
8.49601e-05
4.63354e-05
4.85317e-05
4.84312e-05
5.1266e-05
5.01598e-05
5.61503e-05
5.59471e-05
7.23196e-05
6.84622e-05
0.000106966
6.64688e-05
-3.07965e-05
-4.01498e-05
-5.48911e-05
-2.0943e-05
-1.19581e-05
1.47214e-05
2.34599e-05
3.72227e-05
4.17837e-05
5.94963e-05
6.02407e-05
5.87342e-05
5.764e-05
5.09151e-05
4.50421e-05
3.22491e-05
2.18328e-05
9.75481e-06
9.07335e-06
4.07685e-05
9.82188e-06
1.8872e-05
1.65201e-05
3.63375e-05
3.51278e-05
4.90737e-05
4.91864e-05
5.6193e-05
5.71012e-05
3.95548e-05
4.13794e-05
4.16641e-05
4.35165e-05
4.24131e-05
4.58482e-05
4.57956e-05
5.38563e-05
5.14493e-05
5.81409e-05
3.35708e-05
-1.54756e-05
-1.6831e-05
-3.05366e-05
-8.38656e-06
-4.58394e-06
1.45568e-05
2.06233e-05
3.15874e-05
3.53433e-05
4.37704e-05
4.38691e-05
4.25755e-05
4.14832e-05
3.63385e-05
3.16136e-05
2.21248e-05
1.32136e-05
4.41642e-06
-2.44044e-06
1.15538e-05
6.4158e-06
2.27387e-05
2.05244e-05
3.41549e-05
3.0264e-05
3.88818e-05
3.74079e-05
4.20793e-05
4.21728e-05
3.41007e-05
3.52036e-05
3.54573e-05
3.64111e-05
3.51015e-05
3.67088e-05
3.64851e-05
3.97596e-05
3.90658e-05
3.78393e-05
2.53925e-05
-5.2292e-06
-6.20815e-06
-1.71512e-05
-1.95652e-06
4.20806e-07
1.46964e-05
1.92615e-05
2.77978e-05
3.05173e-05
3.50474e-05
3.48243e-05
3.39307e-05
3.29543e-05
2.91429e-05
2.55904e-05
1.88235e-05
1.17196e-05
5.84272e-06
-9.1233e-07
6.80952e-06
6.97875e-06
2.1819e-05
1.97518e-05
2.98103e-05
2.60848e-05
3.20147e-05
3.05666e-05
3.3974e-05
3.38299e-05
3.0242e-05
3.0535e-05
3.0737e-05
3.09536e-05
2.94816e-05
2.98284e-05
2.91953e-05
2.96633e-05
3.00569e-05
2.61776e-05
2.10672e-05
7.91201e-07
1.07107e-06
-6.94503e-06
3.89603e-06
5.44132e-06
1.58351e-05
1.92243e-05
2.55897e-05
2.73313e-05
3.01385e-05
2.95112e-05
2.90704e-05
2.81491e-05
2.52037e-05
2.26105e-05
1.84044e-05
1.25005e-05
9.31253e-06
3.24064e-06
8.50559e-06
8.23713e-06
2.00084e-05
1.76112e-05
2.55589e-05
2.28917e-05
2.72385e-05
2.64372e-05
2.91134e-05
2.88018e-05
2.77263e-05
2.71999e-05
2.75142e-05
2.72543e-05
2.55524e-05
2.52108e-05
2.42462e-05
2.28808e-05
2.39389e-05
1.92635e-05
1.8226e-05
4.73015e-06
6.75533e-06
9.91542e-07
9.01245e-06
1.00723e-05
1.72628e-05
1.98359e-05
2.44506e-05
2.5264e-05
2.72855e-05
2.61658e-05
2.61892e-05
2.51827e-05
2.2803e-05
2.12061e-05
1.8359e-05
1.35237e-05
1.28552e-05
6.63286e-06
1.1585e-05
9.02354e-06
1.84078e-05
1.58828e-05
2.20718e-05
2.0679e-05
2.39722e-05
2.39763e-05
2.60699e-05
2.56143e-05
2.59819e-05
2.4994e-05
2.55793e-05
2.47112e-05
2.31233e-05
2.24089e-05
2.15337e-05
1.86866e-05
2.03031e-05
1.52375e-05
1.69668e-05
7.58283e-06
1.11397e-05
6.41237e-06
1.29317e-05
1.3652e-05
1.85827e-05
2.0691e-05
2.37076e-05
2.40409e-05
2.56818e-05
2.36298e-05
2.446e-05
2.33672e-05
2.10908e-05
2.01388e-05
1.8327e-05
1.39576e-05
1.52008e-05
8.87195e-06
1.3984e-05
9.67334e-06
1.75678e-05
1.46441e-05
1.99062e-05
1.95012e-05
2.15931e-05
2.26045e-05
2.42735e-05
2.3469e-05
2.53542e-05
2.33709e-05
2.45177e-05
2.30616e-05
2.12435e-05
2.12624e-05
1.98715e-05
1.62388e-05
1.92534e-05
1.27327e-05
1.72057e-05
8.93528e-06
1.42966e-05
1.01919e-05
1.53465e-05
1.64815e-05
1.9379e-05
2.15388e-05
2.32029e-05
2.28746e-05
2.43512e-05
2.18362e-05
2.35258e-05
2.18119e-05
1.99139e-05
1.95174e-05
1.84043e-05
1.33895e-05
1.67265e-05
9.65358e-06
1.57996e-05
9.84978e-06
1.75853e-05
1.35229e-05
1.85185e-05
1.8784e-05
2.01206e-05
2.2e-05
2.27477e-05
2.20907e-05
2.52445e-05
2.14801e-05
2.4091e-05
2.2491e-05
1.97645e-05
2.03887e-05
1.91954e-05
1.46841e-05
1.91769e-05
1.13572e-05
1.79632e-05
9.72965e-06
1.65662e-05
1.21768e-05
1.71581e-05
1.85368e-05
1.91103e-05
2.23178e-05
2.33055e-05
2.18275e-05
2.38636e-05
1.99621e-05
2.29898e-05
2.07954e-05
1.83083e-05
1.951e-05
1.8198e-05
1.23548e-05
1.82155e-05
8.84748e-06
1.75658e-05
8.98489e-06
1.77332e-05
1.26253e-05
1.73316e-05
1.87817e-05
1.86712e-05
2.17806e-05
2.16471e-05
2.03562e-05
2.50875e-05
2.02223e-05
2.41778e-05
2.15164e-05
1.85548e-05
2.04169e-05
1.88184e-05
1.29511e-05
1.98407e-05
1.001e-05
1.9215e-05
9.62673e-06
1.8551e-05
1.27577e-05
1.78829e-05
1.97578e-05
1.89105e-05
2.31177e-05
2.27019e-05
2.08897e-05
2.40708e-05
1.72677e-05
2.29574e-05
2.03838e-05
1.57008e-05
1.99702e-05
1.79282e-05
1.03519e-05
1.93976e-05
7.10836e-06
1.89741e-05
7.42916e-06
1.82901e-05
1.11286e-05
1.61233e-05
1.93867e-05
1.64084e-05
2.18548e-05
2.10093e-05
1.78047e-05
2.5153e-05
1.83463e-05
2.46828e-05
2.07528e-05
1.68929e-05
2.1097e-05
1.83964e-05
1.07052e-05
2.13705e-05
7.72639e-06
2.10991e-05
8.05687e-06
2.02304e-05
1.19573e-05
1.79768e-05
2.06244e-05
1.7709e-05
2.40069e-05
2.19799e-05
1.94758e-05
2.41573e-05
1.40277e-05
2.37953e-05
1.92381e-05
1.2358e-05
2.11425e-05
1.74394e-05
6.63657e-06
2.11075e-05
3.6033e-06
2.08155e-05
4.24863e-06
1.92927e-05
8.32163e-06
1.46178e-05
1.96881e-05
1.35654e-05
2.25477e-05
1.9488e-05
1.47194e-05
2.58209e-05
1.5496e-05
2.56594e-05
1.97822e-05
1.36928e-05
2.23998e-05
1.7693e-05
7.66768e-06
2.29525e-05
4.5882e-06
2.28201e-05
5.34102e-06
2.14795e-05
9.4685e-06
1.7388e-05
2.16373e-05
1.52217e-05
2.49645e-05
2.08103e-05
1.66254e-05
2.50912e-05
7.5863e-06
2.63981e-05
1.82552e-05
5.39668e-06
2.43579e-05
1.68463e-05
-1.23697e-06
2.46709e-05
-3.71443e-06
2.4326e-05
-2.65646e-06
2.17186e-05
1.90028e-06
1.20269e-05
2.10915e-05
7.47045e-06
2.46179e-05
1.78286e-05
8.76262e-06
2.62164e-05
1.03392e-05
2.75069e-05
1.76183e-05
8.20568e-06
2.50119e-05
1.59346e-05
1.70653e-06
2.51548e-05
-1.2543e-06
2.48617e-05
-1.89548e-07
2.26545e-05
4.19104e-06
1.55166e-05
2.1831e-05
1.01626e-05
2.62374e-05
1.79927e-05
1.17819e-05
2.82878e-05
-6.7622e-06
3.40742e-05
1.44193e-05
-1.1963e-05
3.40228e-05
1.38329e-05
-1.99143e-05
3.23744e-05
-2.06613e-05
3.13063e-05
-1.89572e-05
2.70486e-05
-1.40701e-05
6.78792e-06
2.45802e-05
-6.6704e-06
3.09059e-05
1.29185e-05
-5.60693e-06
-0.0109766
-0.0105839
-0.0102779
-0.0100663
-0.00994968
-0.00993685
-0.0100573
-0.0102916
-0.0106339
-0.0110601
-0.011548
-0.0120464
-0.0124925
-0.0128081
-0.0129421
-0.012905
-0.012705
-0.0123576
-0.0119127
-0.0114333
0.00232814
0.00228244
0.00215132
0.00198983
0.00183577
0.00174573
0.00167663
0.00159144
0.0014693
0.00131493
0.00111285
0.000889692
0.000700415
0.000605894
0.000667673
0.000935432
0.00131219
0.00170507
0.00203694
0.0022519
-0.00233504
-0.00209913
-0.00191316
-0.00177704
-0.00172733
-0.00178307
-0.00191059
-0.00206024
-0.00227802
-0.00253393
-0.00286531
-0.00321653
-0.00351971
-0.00369029
-0.00372747
-0.00365277
-0.0034649
-0.0031871
-0.00288557
-0.00259615
0.00290785
0.0029715
0.00299591
0.00301349
0.0030185
0.0030185
0.00295186
0.00287379
0.00270721
0.00251439
0.00218662
0.00181749
0.00151051
0.00137951
0.00150651
0.00176578
0.00210426
0.00240985
0.00264455
0.00280786
-0.000458647
-0.000310765
-0.000237693
-0.000190534
-0.000227892
-0.000243534
-0.0003048
-0.000351576
-0.000506901
-0.000702953
-0.00112341
-0.00162919
-0.0020575
-0.00228654
-0.00231069
-0.00212862
-0.00177123
-0.00136303
-0.000981726
-0.000674335
0.00202191
0.00212366
0.00217435
0.0022202
0.00221655
0.00220649
0.00212368
0.00205213
0.00185666
0.0016327
0.00111934
0.000583115
0.000207822
0.000147228
0.000361729
0.000719148
0.00109719
0.00142481
0.00168873
0.00188697
5.99287e-05
0.0001041
0.000108348
0.000112684
9.0398e-05
0.000112443
8.20869e-05
7.48264e-05
-7.19595e-05
-0.000282313
-0.000889836
-0.00153678
-0.00193885
-0.00199326
-0.00169726
-0.00124456
-0.000786989
-0.000430403
-0.000178077
-2.17666e-05
0.00125417
0.00132438
0.00135716
0.00139122
0.00136677
0.00135292
0.00127592
0.00120999
0.00102196
0.000770414
0.000115982
-0.000487443
-0.000753332
-0.000569335
-0.000171599
0.000239918
0.000600391
0.000854086
0.00103983
0.0011671
0.00017306
0.000183012
0.000170681
0.000171871
0.000164412
0.000188676
0.000168781
0.000163941
4.07418e-05
-0.000181309
-0.000862768
-0.00150144
-0.00171496
-0.00145285
-0.000966921
-0.000551919
-0.000224842
-3.18067e-05
8.98852e-05
0.000149801
0.000742367
0.000782547
0.000798866
0.000814467
0.000791707
0.000776445
0.000716579
0.000661491
0.000517394
0.000289769
-0.00033675
-0.000845535
-0.000854053
-0.000555053
-0.000132079
0.000166444
0.0003979
0.000529552
0.000629885
0.000694427
0.00017851
0.000182345
0.000172147
0.000177902
0.000172552
0.000190862
0.000176207
0.000180161
9.83902e-05
-4.7244e-05
-0.000622953
-0.00115549
-0.00109583
-0.000793165
-0.000406836
-0.000171899
6.13849e-06
8.83294e-05
0.000146765
0.000169689
0.00043589
0.000456853
0.000462895
0.00046906
0.000449931
0.000436935
0.000393091
0.00035705
0.000265415
0.000138964
-0.000326124
-0.000619118
-0.000505829
-0.00023894
3.34986e-05
0.000170484
0.000283452
0.000332285
0.000382083
0.000410817
0.000155518
0.000160193
0.000155304
0.000162653
0.000157952
0.000173406
0.000164162
0.000190562
0.000155891
0.000180655
-0.000199581
-0.000574739
-0.000488545
-0.000327575
-0.000117402
-2.52592e-05
6.6581e-05
9.91379e-05
0.00013488
0.000147256
0.000261893
0.000272545
0.000273386
0.000275754
0.00025953
0.000249429
0.000216431
0.000197722
0.000150661
0.000142034
-8.05072e-05
-0.000197817
-0.000125273
-1.01732e-05
0.00011177
0.000143241
0.000194903
0.000207518
0.000235404
0.000247983
0.000127292
0.000133086
0.000131944
0.000139016
0.000135125
0.000148615
0.000144226
0.000185176
0.000191503
0.000365394
0.00022884
-0.000146385
-0.000154529
-0.000139821
-4.83408e-05
-1.05425e-05
5.44938e-05
7.56927e-05
0.00010651
0.000117448
0.000165945
0.000171662
0.000170488
0.000171192
0.000157557
0.000149162
0.000122157
0.000109629
7.79493e-05
0.000144959
0.0002516
8.30846e-06
-2.30017e-05
-1.51573e-05
5.41557e-05
6.76332e-05
0.000114805
0.000125631
0.000148937
0.000156637
0.000102512
0.000108013
0.000108499
0.000114136
0.000110833
0.000120223
0.000116431
0.00014121
0.000130366
0.000185657
0.000108634
-6.10744e-05
-5.50054e-05
-7.63204e-05
-1.49195e-05
-4.4626e-06
4.26113e-05
5.71635e-05
8.32551e-05
9.27489e-05
0.000114169
0.000117145
0.00011548
0.000115421
0.000104432
9.72442e-05
7.61692e-05
6.31606e-05
4.13473e-05
4.3246e-05
7.52781e-05
4.56192e-06
2.90729e-05
2.1479e-05
6.15077e-05
5.81344e-05
8.66217e-05
8.84995e-05
0.000104266
0.000107955
8.36956e-05
8.78602e-05
8.86557e-05
9.24847e-05
8.94772e-05
9.50177e-05
9.21942e-05
0.000104199
9.67271e-05
0.000106147
6.33992e-05
-2.57731e-05
-1.74721e-05
-4.13803e-05
2.47588e-07
3.48112e-06
3.80984e-05
4.76877e-05
6.81612e-05
7.53087e-05
8.57997e-05
8.72155e-05
8.57436e-05
8.53058e-05
7.68055e-05
7.0918e-05
5.52189e-05
4.31808e-05
2.73309e-05
1.70853e-05
3.10619e-05
8.90694e-06
3.95476e-05
3.09161e-05
5.91283e-05
5.14375e-05
7.0268e-05
6.88507e-05
7.98105e-05
8.13897e-05
7.05517e-05
7.30425e-05
7.36604e-05
7.58392e-05
7.27601e-05
7.54758e-05
7.30251e-05
7.74634e-05
7.3705e-05
7.0019e-05
4.88242e-05
-5.59551e-06
4.9709e-07
-1.95414e-05
9.75555e-06
1.08561e-05
3.6618e-05
4.32507e-05
5.88874e-05
6.37066e-05
6.97509e-05
7.01273e-05
6.91554e-05
6.85128e-05
6.20733e-05
5.75875e-05
4.63276e-05
3.61095e-05
2.5738e-05
1.41696e-05
2.27121e-05
1.40064e-05
4.0696e-05
3.28513e-05
5.37631e-05
4.63849e-05
5.96978e-05
5.78111e-05
6.58116e-05
6.63708e-05
6.19459e-05
6.27279e-05
6.32497e-05
6.40503e-05
6.08933e-05
6.16775e-05
5.91833e-05
5.91543e-05
5.81453e-05
5.01439e-05
4.17932e-05
6.18024e-06
1.24149e-05
-2.86691e-06
1.84547e-05
1.86465e-05
3.74005e-05
4.20647e-05
5.36e-05
5.64515e-05
6.06273e-05
5.98782e-05
5.9574e-05
5.86638e-05
5.35492e-05
5.02777e-05
4.30881e-05
3.40925e-05
2.87303e-05
1.76104e-05
2.47493e-05
1.81903e-05
3.95025e-05
3.20011e-05
4.83819e-05
4.28741e-05
5.26028e-05
5.14979e-05
5.75554e-05
5.73787e-05
5.66149e-05
5.57038e-05
5.64871e-05
5.62903e-05
5.29018e-05
5.2685e-05
5.01467e-05
4.71697e-05
4.82322e-05
3.88293e-05
3.79154e-05
1.37762e-05
2.15546e-05
1.00036e-05
2.60404e-05
2.59749e-05
3.9008e-05
4.25388e-05
5.08051e-05
5.19306e-05
5.53703e-05
5.33768e-05
5.38913e-05
5.25094e-05
4.82377e-05
4.63509e-05
4.14109e-05
3.35183e-05
3.27936e-05
2.11304e-05
2.92964e-05
2.07491e-05
3.82392e-05
3.11356e-05
4.40215e-05
4.07748e-05
4.79107e-05
4.8047e-05
5.2527e-05
5.17703e-05
5.32151e-05
5.1068e-05
5.25069e-05
5.11104e-05
4.7902e-05
4.72753e-05
4.51388e-05
3.97331e-05
4.2699e-05
3.23496e-05
3.6715e-05
1.90328e-05
2.86224e-05
1.88193e-05
3.18678e-05
3.18032e-05
4.06341e-05
4.3764e-05
4.91119e-05
4.92321e-05
5.24995e-05
4.85626e-05
5.05779e-05
4.86709e-05
4.45114e-05
4.37139e-05
4.0393e-05
3.27166e-05
3.58093e-05
2.34297e-05
3.31862e-05
2.2464e-05
3.79249e-05
3.04816e-05
4.14401e-05
4.00771e-05
4.45351e-05
4.64073e-05
4.95949e-05
4.80306e-05
5.18967e-05
4.76471e-05
5.03915e-05
4.7756e-05
4.41473e-05
4.48512e-05
4.21252e-05
3.51524e-05
4.13115e-05
2.82056e-05
3.78152e-05
2.15452e-05
3.38629e-05
2.4828e-05
3.54958e-05
3.65076e-05
4.15276e-05
4.52106e-05
4.80168e-05
4.69166e-05
5.04261e-05
4.49963e-05
4.88872e-05
4.56582e-05
4.18247e-05
4.2256e-05
3.99138e-05
3.07577e-05
3.81188e-05
2.37133e-05
3.64447e-05
2.29543e-05
3.87591e-05
2.95077e-05
3.98338e-05
3.99256e-05
4.22978e-05
4.59812e-05
4.72087e-05
4.54895e-05
5.16392e-05
4.39541e-05
4.96058e-05
4.62488e-05
4.10886e-05
4.33021e-05
4.07631e-05
3.18817e-05
4.16435e-05
2.54799e-05
3.97803e-05
2.26578e-05
3.7799e-05
2.782e-05
3.81417e-05
4.00456e-05
4.07781e-05
4.66987e-05
4.78614e-05
4.47884e-05
4.97918e-05
4.12971e-05
4.81314e-05
4.36289e-05
3.8548e-05
4.21105e-05
3.92287e-05
2.80954e-05
4.07012e-05
2.15441e-05
3.97963e-05
2.14121e-05
3.97652e-05
2.82894e-05
3.83091e-05
4.06518e-05
3.9832e-05
4.61717e-05
4.54021e-05
4.23505e-05
5.15738e-05
4.09927e-05
4.98806e-05
4.43324e-05
3.82337e-05
4.34642e-05
3.98842e-05
2.81305e-05
4.3296e-05
2.23788e-05
4.25703e-05
2.18448e-05
4.13407e-05
2.82652e-05
3.90571e-05
4.23745e-05
3.97922e-05
4.83098e-05
4.66678e-05
4.25831e-05
5.03138e-05
3.61917e-05
4.84332e-05
4.24807e-05
3.35892e-05
4.31027e-05
3.8463e-05
2.37153e-05
4.3195e-05
1.75657e-05
4.28568e-05
1.81907e-05
4.13867e-05
2.55366e-05
3.64828e-05
4.21172e-05
3.57914e-05
4.6868e-05
4.40624e-05
3.77486e-05
5.19909e-05
3.67465e-05
5.11325e-05
4.26581e-05
3.42789e-05
4.50288e-05
3.88656e-05
2.30913e-05
4.64824e-05
1.72817e-05
4.64445e-05
1.81445e-05
4.45469e-05
2.59866e-05
3.88348e-05
4.41522e-05
3.68603e-05
5.02082e-05
4.50679e-05
3.9265e-05
5.08476e-05
2.97403e-05
5.039e-05
4.0186e-05
2.69508e-05
4.56605e-05
3.7261e-05
1.62276e-05
4.68324e-05
1.03122e-05
4.68029e-05
1.17591e-05
4.37407e-05
1.99929e-05
3.39227e-05
4.31182e-05
3.02231e-05
4.86169e-05
4.11663e-05
3.18026e-05
5.34558e-05
3.03122e-05
5.36101e-05
4.04659e-05
2.7237e-05
4.81896e-05
3.72378e-05
1.58932e-05
5.02425e-05
9.90383e-06
5.04559e-05
1.16718e-05
4.73766e-05
2.01703e-05
3.73086e-05
4.61781e-05
3.12006e-05
5.25254e-05
4.24311e-05
3.31356e-05
5.2796e-05
1.78419e-05
5.5504e-05
3.77777e-05
1.41232e-05
5.1992e-05
3.55935e-05
1.72313e-06
5.36528e-05
-3.45655e-06
5.35174e-05
-1.139e-06
4.83482e-05
8.0688e-06
2.94401e-05
4.57269e-05
1.90294e-05
5.27063e-05
3.75419e-05
2.08966e-05
5.48546e-05
1.94937e-05
5.81889e-05
3.62129e-05
1.5592e-05
5.43479e-05
3.37598e-05
3.11317e-06
5.56184e-05
-2.66786e-06
5.54901e-05
-1.89719e-07
5.05396e-05
8.93618e-06
3.35635e-05
4.72897e-05
2.06974e-05
5.58955e-05
3.69188e-05
2.307e-05
5.81329e-05
-5.06245e-06
6.8505e-05
3.11144e-05
-1.32585e-05
6.84138e-05
3.03163e-05
-2.78886e-05
6.6922e-05
-3.07111e-05
6.56114e-05
-2.72589e-05
5.74193e-05
-1.74121e-05
2.13781e-05
5.15638e-05
-3.40224e-06
6.32292e-05
2.89484e-05
-1.65128e-06
-0.0135165
-0.0129672
-0.0125177
-0.0121898
-0.0119976
-0.0119708
-0.0121256
-0.0124405
-0.0129046
-0.0134822
-0.0141372
-0.0148011
-0.0153927
-0.0158176
-0.0160117
-0.0159826
-0.0157423
-0.0153118
-0.0147495
-0.0141284
0.00193793
0.00199492
0.00192859
0.00179406
0.00163662
0.00152124
0.00138503
0.00121014
0.00097534
0.000690402
0.000344234
-2.28317e-05
-0.00033484
-0.000508591
-0.000463889
-0.000151124
0.00032725
0.000861724
0.00135357
0.00172572
-0.00274394
-0.00243562
-0.00221878
-0.00208332
-0.0020689
-0.00217609
-0.00237272
-0.0026123
-0.00294666
-0.00334389
-0.0038435
-0.00436585
-0.00480842
-0.0050475
-0.00507596
-0.00489437
-0.00453282
-0.00405613
-0.00356592
-0.00311989
0.00337923
0.00345698
0.00347579
0.00347874
0.00345625
0.00341232
0.00328671
0.00313135
0.00285316
0.00251708
0.00200247
0.00144942
0.00102195
0.000885419
0.00113459
0.00158025
0.00212796
0.00261756
0.00298841
0.00323696
-0.000285479
-0.000126187
-5.48741e-05
-1.83108e-05
-7.89591e-05
-0.000119897
-0.000229545
-0.000342916
-0.00060963
-0.000960145
-0.00160006
-0.00231321
-0.00284271
-0.00304662
-0.00291522
-0.00251724
-0.0019518
-0.00138267
-0.000896593
-0.000529809
0.0024748
0.00259421
0.00265044
0.00269725
0.00267449
0.00264116
0.00250982
0.00237292
0.00206218
0.00167445
0.000917553
0.000183585
-0.000248868
-0.000194418
0.000211834
0.000768293
0.00130488
0.00173997
0.00207225
0.00231344
0.000289676
0.000347683
0.000354891
0.000357392
0.000325652
0.00033393
0.000266011
0.000205205
-5.08587e-05
-0.000428633
-0.00130396
-0.00214521
-0.00257097
-0.00247791
-0.00197674
-0.00134271
-0.000753
-0.000312271
-5.26078e-06
0.000186421
0.00158252
0.00167124
0.00171118
0.00174783
0.00171092
0.00168107
0.0015651
0.00144507
0.00114931
0.000727925
-0.000199403
-0.000967975
-0.00119612
-0.000854355
-0.000265013
0.000288217
0.000750715
0.00107139
0.00130677
0.0014701
0.000369568
0.000391146
0.000381047
0.000384649
0.00036919
0.000384928
0.000335738
0.000288725
7.09863e-05
-0.000312797
-0.00126801
-0.00205522
-0.00219509
-0.00176404
-0.00110556
-0.000574607
-0.000164118
8.17876e-05
0.000242914
0.000329365
0.000965926
0.00101878
0.00103908
0.00105609
0.00102416
0.000998302
0.000909476
0.000814346
0.000584748
0.000208636
-0.000673927
-0.00128895
-0.00119799
-0.000745201
-0.000181992
0.000203627
0.000501688
0.000676078
0.000811463
0.000900584
0.000328691
0.000340606
0.000331618
0.00033982
0.00032821
0.000341513
0.000306055
0.000282956
0.000132844
-0.000135533
-0.000945596
-0.00156523
-0.00139357
-0.000961078
-0.000460419
-0.000160915
6.96919e-05
0.000183238
0.000268377
0.000308372
0.000585746
0.000614533
0.000622238
0.000629541
0.000603309
0.00058385
0.000520341
0.000460281
0.000312828
8.65652e-05
-0.000575763
-0.000909318
-0.000693624
-0.000324341
3.19601e-05
0.000211422
0.00036369
0.00043503
0.000506872
0.00054994
0.000265645
0.000276021
0.000271925
0.000281435
0.000271983
0.000285513
0.000263281
0.00027927
0.000206307
0.000171157
-0.000373744
-0.000791833
-0.000620724
-0.000392536
-0.000119275
3.70072e-07
0.000123658
0.000172626
0.000226301
0.00024933
0.000363783
0.000379412
0.000380844
0.000384263
0.000362499
0.000348846
0.000303018
0.000273811
0.000198201
0.000146534
-0.000189859
-0.000322044
-0.000185222
-2.66676e-05
0.000136434
0.000181678
0.000256178
0.000279457
0.000321864
0.000342858
0.000207636
0.000217653
0.000217132
0.000226079
0.000218567
0.000232018
0.000220055
0.000261791
0.000253839
0.000423425
0.000205022
-0.000227871
-0.000193958
-0.000162056
-3.67648e-05
1.09361e-05
9.80463e-05
0.00012894
0.00017339
0.000191623
0.000237854
0.000246953
0.00024595
0.000247556
0.000229466
0.000218996
0.000182858
0.000166454
0.000120499
0.000187879
0.000272686
-3.08544e-05
-4.12518e-05
-2.51975e-05
7.10287e-05
9.15856e-05
0.000157592
0.000175434
0.000210096
0.000223416
0.000162487
0.000171087
0.000172009
0.000179107
0.000172873
0.000182523
0.000173405
0.00019975
0.000179714
0.000239075
0.000132101
-8.80847e-05
-6.90943e-05
-9.18753e-05
-6.32093e-06
9.20418e-06
7.45327e-05
9.59817e-05
0.000133112
0.000147866
0.000167781
0.00017305
0.000171375
0.000171988
0.000157375
0.000148675
0.000120683
0.000104754
7.36298e-05
7.40259e-05
9.73684e-05
-5.6422e-06
3.06886e-05
2.03425e-05
7.88778e-05
7.73167e-05
0.000119926
0.000125876
0.000150315
0.000157725
0.000130466
0.000136736
0.000137762
0.000142574
0.000137077
0.000142623
0.000135772
0.000147901
0.000134376
0.00014239
8.55987e-05
-3.37952e-05
-1.73109e-05
-4.70838e-05
1.14919e-05
1.65567e-05
6.48864e-05
7.8757e-05
0.000107656
0.000118363
0.000128297
0.000131159
0.000129597
0.000129562
0.000118112
0.000110986
9.00642e-05
7.51215e-05
5.2831e-05
3.85125e-05
4.8322e-05
9.57431e-06
5.01665e-05
3.66671e-05
7.8174e-05
6.98561e-05
9.89489e-05
9.96504e-05
0.000117061
0.000120994
0.000109018
0.000112744
0.000113441
0.000116148
0.000110863
0.000113298
0.000107672
0.000111089
0.000103451
9.60028e-05
6.81587e-05
-4.55633e-06
8.11017e-06
-1.78129e-05
2.38893e-05
2.52561e-05
6.11611e-05
7.03782e-05
9.2287e-05
9.93512e-05
0.000105494
0.000106598
0.000105543
0.000105033
9.61586e-05
9.0656e-05
7.55193e-05
6.24768e-05
4.80183e-05
3.16989e-05
3.87863e-05
2.03267e-05
5.54032e-05
4.2803e-05
7.36343e-05
6.49531e-05
8.58333e-05
8.51192e-05
9.7919e-05
9.98823e-05
9.53206e-05
9.65526e-05
9.71265e-05
9.80477e-05
9.28846e-05
9.3215e-05
8.81744e-05
8.64081e-05
8.32124e-05
7.08035e-05
5.9994e-05
1.2574e-05
2.46367e-05
4.36541e-06
3.5047e-05
3.49103e-05
6.10813e-05
6.73783e-05
8.35014e-05
8.76191e-05
9.23319e-05
9.16112e-05
9.13458e-05
9.02812e-05
8.30619e-05
7.89954e-05
6.90263e-05
5.72491e-05
4.98043e-05
3.39055e-05
4.14797e-05
2.79652e-05
5.63669e-05
4.46144e-05
6.87165e-05
6.20307e-05
7.73486e-05
7.70882e-05
8.6694e-05
8.72058e-05
8.69587e-05
8.57418e-05
8.67245e-05
8.62802e-05
8.09966e-05
8.03322e-05
7.57418e-05
7.05201e-05
7.08552e-05
5.68375e-05
5.61484e-05
2.36765e-05
3.70369e-05
2.1299e-05
4.4613e-05
4.41427e-05
6.24602e-05
6.72079e-05
7.87475e-05
8.03841e-05
8.47154e-05
8.20308e-05
8.28645e-05
8.09913e-05
7.48024e-05
7.24299e-05
6.54196e-05
5.47016e-05
5.36752e-05
3.70755e-05
4.72952e-05
3.27296e-05
5.65835e-05
4.56529e-05
6.4763e-05
6.07786e-05
7.19421e-05
7.29703e-05
7.99678e-05
7.93358e-05
8.18054e-05
7.85994e-05
8.06113e-05
7.85433e-05
7.35086e-05
7.26289e-05
6.88372e-05
6.06878e-05
6.43428e-05
4.9015e-05
5.56992e-05
3.12642e-05
4.65595e-05
3.29233e-05
5.19246e-05
5.16502e-05
6.40749e-05
6.84246e-05
7.59372e-05
7.60049e-05
8.05588e-05
7.50458e-05
7.79431e-05
7.51455e-05
6.90665e-05
6.82127e-05
6.3263e-05
5.24776e-05
5.69575e-05
3.91371e-05
5.25399e-05
3.58209e-05
5.75694e-05
4.63531e-05
6.26332e-05
6.10694e-05
6.81315e-05
7.12729e-05
7.60703e-05
7.41093e-05
7.96262e-05
7.33455e-05
7.73552e-05
7.35467e-05
6.79892e-05
6.90128e-05
6.47653e-05
5.44737e-05
6.30128e-05
4.39815e-05
5.79858e-05
3.50513e-05
5.37061e-05
4.07382e-05
5.65359e-05
5.77969e-05
6.48824e-05
7.01973e-05
7.4166e-05
7.24663e-05
7.78076e-05
6.97638e-05
7.54531e-05
7.07755e-05
6.48564e-05
6.59335e-05
6.21387e-05
4.91842e-05
5.98535e-05
3.88744e-05
5.71764e-05
3.69043e-05
5.96606e-05
4.61309e-05
6.13855e-05
6.1866e-05
6.54778e-05
7.11345e-05
7.30214e-05
7.0428e-05
7.90477e-05
6.79709e-05
7.61054e-05
7.10247e-05
6.34469e-05
6.69143e-05
6.28401e-05
4.97705e-05
6.39525e-05
4.03216e-05
6.13242e-05
3.65626e-05
5.91862e-05
4.45476e-05
5.97903e-05
6.25299e-05
6.3694e-05
7.21874e-05
7.3589e-05
6.92279e-05
7.69754e-05
6.43742e-05
7.44509e-05
6.77909e-05
6.00377e-05
6.56003e-05
6.10019e-05
4.50163e-05
6.33499e-05
3.55652e-05
6.20004e-05
3.50591e-05
6.18208e-05
4.49905e-05
5.99441e-05
6.34913e-05
6.2293e-05
7.17861e-05
7.06431e-05
6.60229e-05
7.89722e-05
6.33036e-05
7.64433e-05
6.82448e-05
5.89861e-05
6.71841e-05
6.15462e-05
4.42636e-05
6.66146e-05
3.57698e-05
6.56479e-05
3.51654e-05
6.41068e-05
4.48318e-05
6.08089e-05
6.58193e-05
6.18875e-05
7.4431e-05
7.18282e-05
6.57051e-05
7.76339e-05
5.71944e-05
7.50094e-05
6.58715e-05
5.30857e-05
6.70062e-05
5.98036e-05
3.85405e-05
6.70332e-05
2.96776e-05
6.6627e-05
3.05568e-05
6.46012e-05
4.13651e-05
5.78052e-05
6.57913e-05
5.68949e-05
7.30877e-05
6.863e-05
5.96886e-05
7.96136e-05
5.68258e-05
7.827e-05
6.57249e-05
5.28543e-05
6.94921e-05
6.00341e-05
3.6731e-05
7.12449e-05
2.82783e-05
7.12874e-05
2.96638e-05
6.86208e-05
4.12248e-05
6.02073e-05
6.83985e-05
5.73565e-05
7.71335e-05
6.93991e-05
6.05161e-05
7.84708e-05
4.80001e-05
7.78417e-05
6.26037e-05
4.36585e-05
7.06918e-05
5.80138e-05
2.79048e-05
7.23056e-05
1.93497e-05
7.24108e-05
2.15361e-05
6.81874e-05
3.36589e-05
5.44411e-05
6.74785e-05
4.90985e-05
7.57124e-05
6.45914e-05
5.12998e-05
8.15752e-05
4.72397e-05
8.19636e-05
6.24617e-05
4.24821e-05
7.41994e-05
5.76596e-05
2.58621e-05
7.68756e-05
1.72727e-05
7.72965e-05
1.99928e-05
7.27888e-05
3.25772e-05
5.77369e-05
7.12275e-05
4.89696e-05
8.05411e-05
6.54523e-05
5.15058e-05
8.10118e-05
3.20529e-05
8.47217e-05
5.89911e-05
2.64977e-05
7.92807e-05
5.54862e-05
8.53605e-06
8.1489e-05
8.66071e-07
8.14945e-05
4.31269e-06
7.43441e-05
1.77632e-05
4.84833e-05
7.09264e-05
3.42094e-05
8.11951e-05
5.93243e-05
3.66869e-05
8.36089e-05
3.21459e-05
8.85726e-05
5.66872e-05
2.61608e-05
8.30111e-05
5.30038e-05
7.90038e-06
8.46799e-05
-3.35733e-07
8.46655e-05
3.41827e-06
7.74539e-05
1.69022e-05
5.24113e-05
7.30937e-05
3.44238e-05
8.54403e-05
5.79197e-05
3.7448e-05
8.7214e-05
4.28395e-06
0.000100627
5.05951e-05
-6.49661e-06
9.94795e-05
4.89134e-05
-2.72075e-05
9.78899e-05
-3.21724e-05
9.65007e-05
-2.72929e-05
8.53458e-05
-1.30445e-05
3.84601e-05
7.79143e-05
7.12277e-06
9.38474e-05
4.83464e-05
9.53254e-06
-0.0149347
-0.0143094
-0.0137952
-0.0134197
-0.0132055
-0.013189
-0.0133777
-0.0137495
-0.0142905
-0.0149578
-0.0157069
-0.0164588
-0.0171212
-0.0175902
-0.0177974
-0.0177509
-0.0174661
-0.016971
-0.0163318
-0.0156284
0.00142035
0.00152923
0.00149984
0.00138629
0.00123894
0.00111521
0.000938814
0.000706589
0.00039643
2.4318e-05
-0.000415313
-0.000870242
-0.00124989
-0.00145879
-0.00140637
-0.00105067
-0.000504479
0.000112815
0.00069017
0.00114147
-0.0031013
-0.00274463
-0.00250461
-0.00236574
-0.00237572
-0.00251653
-0.00276095
-0.0030654