/*--------------------------------*- C++ -*----------------------------------*\
| =========                 |                                                 |
| \\      /  F ield         | OpenFOAM: The Open Source CFD Toolbox           |
|  \\    /   O peration     | Version:  2.4.0                                 |
|   \\  /    A nd           | Web:      www.OpenFOAM.org                      |
|    \\/     M anipulation  |                                                 |
\*---------------------------------------------------------------------------*/
FoamFile
{
    version     2.0;
    format      ascii;
    class       volScalarField;
    location    "130";
    object      epsilon;
}
// * * * * * * * * * * * * * * * * * * * * * * * * * * * * * * * * * * * * * //

dimensions      [0 2 -3 0 0 0 0];

internalField   nonuniform List<scalar> 
283312
(
2.64629e-05
2.32661e-05
2.15912e-05
2.17735e-05
2.35786e-05
2.64309e-05
2.96635e-05
3.27696e-05
3.54954e-05
3.77349e-05
3.94352e-05
4.05689e-05
4.11371e-05
4.11786e-05
4.07632e-05
3.9943e-05
3.86787e-05
3.67973e-05
3.40826e-05
3.05454e-05
2.62999e-05
2.84074e-05
3.16633e-05
3.50381e-05
3.77909e-05
3.96681e-05
4.08152e-05
4.14973e-05
4.1863e-05
4.19494e-05
4.18056e-05
4.15616e-05
4.13118e-05
4.09381e-05
4.00751e-05
3.83832e-05
3.55944e-05
3.19745e-05
2.85252e-05
2.64742e-05
3.52303e-05
3.64001e-05
3.75401e-05
3.84289e-05
3.9026e-05
3.93542e-05
3.95082e-05
3.95759e-05
3.95293e-05
3.95004e-05
3.99316e-05
4.11295e-05
4.29602e-05
4.49012e-05
4.5809e-05
4.42059e-05
4.07329e-05
3.73466e-05
3.5369e-05
3.49094e-05
3.53073e-05
3.62223e-05
3.68203e-05
3.71326e-05
3.72626e-05
3.73315e-05
3.74258e-05
3.75624e-05
3.76483e-05
3.84159e-05
4.06804e-05
4.31904e-05
4.35e-05
4.06252e-05
3.64228e-05
3.33591e-05
3.2119e-05
3.22837e-05
3.31735e-05
3.43058e-05
3.56133e-05
3.60155e-05
3.62073e-05
3.62908e-05
3.63554e-05
3.64305e-05
3.65475e-05
3.67071e-05
3.69052e-05
3.96151e-05
4.64465e-05
5.32274e-05
5.47852e-05
5.12579e-05
4.48013e-05
3.86321e-05
3.50185e-05
3.39325e-05
3.42611e-05
3.50036e-05
3.55094e-05
3.56445e-05
3.56916e-05
3.57084e-05
3.57443e-05
3.58109e-05
3.59321e-05
3.61021e-05
3.64307e-05
4.11605e-05
5.31402e-05
6.48289e-05
6.32403e-05
5.25008e-05
4.27373e-05
3.68129e-05
3.44626e-05
3.42172e-05
3.47153e-05
3.52186e-05
3.54834e-05
3.53819e-05
3.53569e-05
3.53718e-05
3.54225e-05
3.54957e-05
3.56108e-05
3.57709e-05
3.61107e-05
4.05773e-05
5.54013e-05
8.286e-05
0.000105931
9.9981e-05
7.64043e-05
5.57834e-05
4.40707e-05
3.87438e-05
3.66003e-05
3.57912e-05
3.52474e-05
3.51687e-05
3.51543e-05
3.51671e-05
3.52047e-05
3.52647e-05
3.53599e-05
3.55038e-05
3.57652e-05
3.54553e-05
3.80926e-05
5.06896e-05
6.87038e-05
7.43367e-05
6.43738e-05
5.13748e-05
4.26413e-05
3.8197e-05
3.62668e-05
3.5518e-05
3.50371e-05
3.50185e-05
3.50254e-05
3.50479e-05
3.50846e-05
3.51385e-05
3.52148e-05
3.53421e-05
3.5551e-05
3.40528e-05
3.16144e-05
3.20552e-05
3.96241e-05
4.63116e-05
4.51725e-05
4.09908e-05
3.77677e-05
3.60884e-05
3.53814e-05
3.5123e-05
3.49418e-05
3.4944e-05
3.49533e-05
3.49704e-05
3.49969e-05
3.50391e-05
3.50983e-05
3.52076e-05
3.53797e-05
3.37012e-05
3.11732e-05
2.82125e-05
2.95088e-05
3.3266e-05
3.50696e-05
3.52906e-05
3.51373e-05
3.50218e-05
3.49699e-05
3.49491e-05
3.48925e-05
3.48989e-05
3.49089e-05
3.49248e-05
3.49466e-05
3.49802e-05
3.50247e-05
3.51133e-05
3.52451e-05
3.34348e-05
3.10762e-05
2.72219e-05
2.67131e-05
2.94644e-05
3.21383e-05
3.37102e-05
3.44527e-05
3.47523e-05
3.48549e-05
3.48841e-05
3.4867e-05
3.48725e-05
3.48801e-05
3.48919e-05
3.49079e-05
3.49331e-05
3.49678e-05
3.50377e-05
3.51545e-05
3.32433e-05
3.15064e-05
2.80648e-05
2.73246e-05
2.9589e-05
3.20827e-05
3.36594e-05
3.44227e-05
3.47277e-05
3.48298e-05
3.48587e-05
3.48498e-05
3.4855e-05
3.48616e-05
3.48713e-05
3.48839e-05
3.49025e-05
3.49285e-05
3.49787e-05
3.50727e-05
3.32848e-05
3.1076e-05
2.70392e-05
2.68286e-05
2.95148e-05
3.21141e-05
3.36848e-05
3.44261e-05
3.47173e-05
3.4814e-05
3.48417e-05
3.48383e-05
3.48426e-05
3.48477e-05
3.48551e-05
3.48646e-05
3.48782e-05
3.48976e-05
3.4933e-05
3.50432e-05
3.3652e-05
3.24347e-05
2.87175e-05
2.80835e-05
3.01963e-05
3.24061e-05
3.37855e-05
3.44503e-05
3.47154e-05
3.48048e-05
3.48307e-05
3.48303e-05
3.48338e-05
3.48379e-05
3.48437e-05
3.48512e-05
3.48612e-05
3.48757e-05
3.48997e-05
3.49947e-05
3.32434e-05
3.05869e-05
2.70796e-05
2.75885e-05
3.0224e-05
3.25098e-05
3.38497e-05
3.44755e-05
3.47199e-05
3.48009e-05
3.48239e-05
3.48241e-05
3.48265e-05
3.48295e-05
3.4834e-05
3.48398e-05
3.48471e-05
3.48557e-05
3.48676e-05
3.48757e-05
3.16473e-05
2.59174e-05
2.37553e-05
2.6087e-05
2.97544e-05
3.24875e-05
3.39204e-05
3.45236e-05
3.47379e-05
3.48029e-05
3.48199e-05
3.482e-05
3.48207e-05
3.48228e-05
3.48264e-05
3.4831e-05
3.4837e-05
3.48438e-05
3.48524e-05
3.48572e-05
3.45724e-05
3.43634e-05
3.44254e-05
3.45952e-05
3.47088e-05
3.4753e-05
3.47913e-05
3.48144e-05
3.48221e-05
3.48223e-05
3.48208e-05
3.48148e-05
3.48151e-05
3.48166e-05
3.48194e-05
3.48232e-05
3.4828e-05
3.48332e-05
3.48397e-05
3.48464e-05
3.48427e-05
3.4837e-05
3.48371e-05
3.48426e-05
3.48446e-05
3.48414e-05
3.48351e-05
3.48287e-05
3.4823e-05
3.48187e-05
3.4816e-05
3.48103e-05
3.48102e-05
3.48112e-05
3.48134e-05
3.48164e-05
3.48204e-05
3.48247e-05
3.48295e-05
3.48331e-05
3.48362e-05
3.4835e-05
3.48348e-05
3.48373e-05
3.4837e-05
3.48341e-05
3.48291e-05
3.48235e-05
3.48184e-05
3.48143e-05
3.48116e-05
3.48058e-05
3.48055e-05
3.48062e-05
3.48079e-05
3.48104e-05
3.48137e-05
3.48174e-05
3.48216e-05
3.48252e-05
3.4828e-05
3.48278e-05
3.48272e-05
3.4828e-05
3.48276e-05
3.48255e-05
3.48216e-05
3.48172e-05
3.4813e-05
3.48095e-05
3.48071e-05
3.48017e-05
3.48012e-05
3.48016e-05
3.4803e-05
3.4805e-05
3.48078e-05
3.48108e-05
3.48142e-05
3.4817e-05
3.48195e-05
3.48199e-05
3.48204e-05
3.48215e-05
3.48212e-05
3.48194e-05
3.48161e-05
3.48123e-05
3.48086e-05
3.48055e-05
3.48031e-05
3.47978e-05
3.47972e-05
3.47974e-05
3.47984e-05
3.48001e-05
3.48024e-05
3.48051e-05
3.48082e-05
3.48108e-05
3.48132e-05
3.48139e-05
3.48143e-05
3.48148e-05
3.48144e-05
3.48129e-05
3.48103e-05
3.48072e-05
3.4804e-05
3.48013e-05
3.47992e-05
3.47942e-05
3.47935e-05
3.47935e-05
3.47943e-05
3.47956e-05
3.47976e-05
3.47998e-05
3.48025e-05
3.48047e-05
3.48069e-05
3.48078e-05
3.48086e-05
3.48094e-05
3.48092e-05
3.48079e-05
3.48056e-05
3.48029e-05
3.48001e-05
3.47976e-05
3.47956e-05
3.47908e-05
3.47901e-05
3.479e-05
3.47905e-05
3.47916e-05
3.47933e-05
3.47952e-05
3.47976e-05
3.47997e-05
3.48018e-05
3.48028e-05
3.48035e-05
3.48041e-05
3.48038e-05
3.48028e-05
3.4801e-05
3.47987e-05
3.47963e-05
3.4794e-05
3.47922e-05
3.47877e-05
3.4787e-05
3.47867e-05
3.47871e-05
3.47879e-05
3.47894e-05
3.4791e-05
3.47931e-05
3.4795e-05
3.47968e-05
3.4798e-05
3.47989e-05
3.47995e-05
3.47994e-05
3.47986e-05
3.4797e-05
3.4795e-05
3.47928e-05
3.47908e-05
3.4789e-05
3.47849e-05
3.47841e-05
3.47838e-05
3.4784e-05
3.47847e-05
3.47859e-05
3.47873e-05
3.47892e-05
3.47909e-05
3.47926e-05
3.47938e-05
3.47946e-05
3.47952e-05
3.47952e-05
3.47945e-05
3.47931e-05
3.47914e-05
3.47895e-05
3.47877e-05
3.47861e-05
3.47822e-05
3.47814e-05
3.47811e-05
3.47812e-05
3.47817e-05
3.47827e-05
3.4784e-05
3.47856e-05
3.47872e-05
3.47888e-05
3.47899e-05
3.47908e-05
3.47914e-05
3.47915e-05
3.4791e-05
3.47898e-05
3.47883e-05
3.47866e-05
3.47849e-05
3.47834e-05
3.47799e-05
3.47791e-05
3.47786e-05
3.47786e-05
3.4779e-05
3.47799e-05
3.4781e-05
3.47825e-05
3.47839e-05
3.47854e-05
3.47865e-05
3.47874e-05
3.4788e-05
3.47881e-05
3.47877e-05
3.47867e-05
3.47854e-05
3.47839e-05
3.47824e-05
3.4781e-05
3.47777e-05
3.47769e-05
3.47764e-05
3.47764e-05
3.47767e-05
3.47774e-05
3.47784e-05
3.47797e-05
3.4781e-05
3.47824e-05
3.47834e-05
3.47844e-05
3.4785e-05
3.47851e-05
3.47848e-05
3.4784e-05
3.47828e-05
3.47815e-05
3.47801e-05
3.47788e-05
3.47758e-05
3.4775e-05
3.47745e-05
3.47743e-05
3.47746e-05
3.47752e-05
3.4776e-05
3.47772e-05
3.47784e-05
3.47797e-05
3.47807e-05
3.47816e-05
3.47822e-05
3.47824e-05
3.47822e-05
3.47815e-05
3.47805e-05
3.47793e-05
3.4778e-05
3.47768e-05
3.4774e-05
3.47732e-05
3.47727e-05
3.47725e-05
3.47727e-05
3.47732e-05
3.47739e-05
3.4775e-05
3.47761e-05
3.47774e-05
3.47784e-05
3.47792e-05
3.47798e-05
3.47801e-05
3.47799e-05
3.47793e-05
3.47784e-05
3.47773e-05
3.47761e-05
3.4775e-05
3.47725e-05
3.47717e-05
3.47712e-05
3.4771e-05
3.47711e-05
3.47715e-05
3.47722e-05
3.47731e-05
3.47742e-05
3.47753e-05
3.47763e-05
3.47771e-05
3.47777e-05
3.4778e-05
3.47779e-05
3.47774e-05
3.47766e-05
3.47756e-05
3.47745e-05
3.47735e-05
3.47711e-05
3.47704e-05
3.47699e-05
3.47696e-05
3.47696e-05
3.477e-05
3.47706e-05
3.47715e-05
3.47724e-05
3.47735e-05
3.47745e-05
3.47753e-05
3.47759e-05
3.47762e-05
3.47762e-05
3.47757e-05
3.4775e-05
3.47741e-05
3.47731e-05
3.47721e-05
3.477e-05
3.47693e-05
3.47687e-05
3.47684e-05
3.47684e-05
3.47687e-05
3.47692e-05
3.47701e-05
3.4771e-05
3.4772e-05
3.47729e-05
3.47738e-05
3.47744e-05
3.47747e-05
3.47747e-05
3.47743e-05
3.47737e-05
3.47728e-05
3.47719e-05
3.47709e-05
3.4769e-05
3.47683e-05
3.47677e-05
3.47674e-05
3.47674e-05
3.47676e-05
3.47681e-05
3.47689e-05
3.47697e-05
3.47707e-05
3.47716e-05
3.47724e-05
3.4773e-05
3.47733e-05
3.47734e-05
3.47731e-05
3.47725e-05
3.47717e-05
3.47708e-05
3.47699e-05
3.47683e-05
3.47675e-05
3.4767e-05
3.47666e-05
3.47665e-05
3.47668e-05
3.47672e-05
3.47679e-05
3.47687e-05
3.47697e-05
3.47706e-05
3.47714e-05
3.4772e-05
3.47723e-05
3.47724e-05
3.47721e-05
3.47716e-05
3.47709e-05
3.477e-05
3.47691e-05
3.47676e-05
3.47669e-05
3.47663e-05
3.47659e-05
3.47658e-05
3.4766e-05
3.47664e-05
3.47671e-05
3.47679e-05
3.47688e-05
3.47697e-05
3.47705e-05
3.4771e-05
3.47714e-05
3.47715e-05
3.47713e-05
3.47708e-05
3.47701e-05
3.47692e-05
3.47684e-05
3.47672e-05
3.47665e-05
3.47659e-05
3.47655e-05
3.47654e-05
3.47655e-05
3.47658e-05
3.47666e-05
3.47673e-05
3.47683e-05
3.47691e-05
3.47699e-05
3.47705e-05
3.47709e-05
3.4771e-05
3.47708e-05
3.47703e-05
3.47696e-05
3.47688e-05
3.4768e-05
3.47669e-05
3.47662e-05
3.47656e-05
3.47652e-05
3.47651e-05
3.47653e-05
3.47656e-05
3.47663e-05
3.4767e-05
3.47679e-05
3.47687e-05
3.47695e-05
3.47701e-05
3.47705e-05
3.47707e-05
3.47704e-05
3.477e-05
3.47693e-05
3.47685e-05
3.47677e-05
3.47991e-05
3.48046e-05
3.47972e-05
3.47957e-05
3.48041e-05
3.47975e-05
3.47964e-05
3.48076e-05
3.48e-05
3.4811e-05
3.4802e-05
3.48136e-05
3.48037e-05
3.48145e-05
3.4817e-05
3.48039e-05
3.48119e-05
3.48019e-05
3.47993e-05
3.48072e-05
2.6495e-05
2.34597e-05
2.21473e-05
2.27651e-05
2.49558e-05
2.80766e-05
3.14301e-05
3.45628e-05
3.72651e-05
3.94526e-05
4.10789e-05
4.21195e-05
4.258e-05
4.25051e-05
4.19681e-05
4.10121e-05
3.95735e-05
3.74531e-05
3.44473e-05
3.06563e-05
2.74472e-05
2.99051e-05
3.33324e-05
3.66965e-05
3.93365e-05
4.10844e-05
4.21518e-05
4.27933e-05
4.31336e-05
4.31892e-05
4.30047e-05
4.27203e-05
4.24324e-05
4.1996e-05
4.10023e-05
3.91016e-05
3.60719e-05
3.23067e-05
2.89328e-05
2.71881e-05
3.66166e-05
3.77526e-05
3.88511e-05
3.96986e-05
4.02603e-05
4.05616e-05
4.07049e-05
4.07728e-05
4.07217e-05
4.0687e-05
4.11376e-05
4.23929e-05
4.43214e-05
4.63798e-05
4.73247e-05
4.56502e-05
4.21076e-05
3.87074e-05
3.67372e-05
3.62809e-05
3.66118e-05
3.74889e-05
3.80502e-05
3.83337e-05
3.8449e-05
3.85181e-05
3.86185e-05
3.87642e-05
3.88511e-05
3.96683e-05
4.20413e-05
4.45649e-05
4.46953e-05
4.15693e-05
3.7323e-05
3.44097e-05
3.33423e-05
3.35973e-05
3.45056e-05
3.5626e-05
3.68519e-05
3.7222e-05
3.7394e-05
3.74691e-05
3.75339e-05
3.76118e-05
3.77353e-05
3.79028e-05
3.81092e-05
4.104e-05
4.82976e-05
5.5256e-05
5.66242e-05
5.27942e-05
4.60581e-05
3.97827e-05
3.62013e-05
3.51778e-05
3.55354e-05
3.6268e-05
3.67047e-05
3.68227e-05
3.68632e-05
3.68795e-05
3.69193e-05
3.69902e-05
3.71176e-05
3.72944e-05
3.76399e-05
4.2838e-05
5.579e-05
6.78634e-05
6.55118e-05
5.41495e-05
4.40486e-05
3.80277e-05
3.56971e-05
3.5475e-05
3.59637e-05
3.64388e-05
3.66489e-05
3.65489e-05
3.65266e-05
3.65444e-05
3.65983e-05
3.66743e-05
3.67939e-05
3.69594e-05
3.73163e-05
4.23258e-05
5.87214e-05
8.81184e-05
0.000111419
0.000103623
7.85287e-05
5.72143e-05
4.52792e-05
3.99034e-05
3.77574e-05
3.6952e-05
3.64094e-05
3.63349e-05
3.63234e-05
3.63385e-05
3.63788e-05
3.64414e-05
3.65401e-05
3.6689e-05
3.69623e-05
3.67567e-05
4.00297e-05
5.38042e-05
7.24249e-05
7.75036e-05
6.6479e-05
5.28058e-05
4.38132e-05
3.93188e-05
3.74011e-05
3.6669e-05
3.62038e-05
3.61872e-05
3.61959e-05
3.622e-05
3.62583e-05
3.63141e-05
3.63928e-05
3.65245e-05
3.67411e-05
3.52105e-05
3.28139e-05
3.34763e-05
4.15461e-05
4.82236e-05
4.66989e-05
4.22395e-05
3.89207e-05
3.72326e-05
3.65358e-05
3.62852e-05
3.61102e-05
3.61131e-05
3.61233e-05
3.61416e-05
3.61695e-05
3.62135e-05
3.62745e-05
3.63877e-05
3.65654e-05
3.48627e-05
3.23926e-05
2.93952e-05
3.08373e-05
3.46541e-05
3.63727e-05
3.65141e-05
3.6324e-05
3.61955e-05
3.61393e-05
3.61172e-05
3.60615e-05
3.60683e-05
3.6079e-05
3.60959e-05
3.61186e-05
3.61535e-05
3.61993e-05
3.62911e-05
3.64266e-05
3.46014e-05
3.23328e-05
2.83693e-05
2.79205e-05
3.07566e-05
3.34225e-05
3.49509e-05
3.56567e-05
3.59351e-05
3.6028e-05
3.60538e-05
3.60359e-05
3.60417e-05
3.60499e-05
3.60624e-05
3.60793e-05
3.61055e-05
3.61413e-05
3.62136e-05
3.63339e-05
3.44078e-05
3.28482e-05
2.93047e-05
2.85674e-05
3.0886e-05
3.33661e-05
3.48985e-05
3.56251e-05
3.59094e-05
3.60025e-05
3.60282e-05
3.60188e-05
3.60241e-05
3.60312e-05
3.60415e-05
3.60547e-05
3.60741e-05
3.61009e-05
3.61528e-05
3.62498e-05
3.44672e-05
3.23842e-05
2.82166e-05
2.80512e-05
3.08015e-05
3.3389e-05
3.49183e-05
3.56256e-05
3.58979e-05
3.59865e-05
3.60113e-05
3.60072e-05
3.60116e-05
3.60171e-05
3.60249e-05
3.60349e-05
3.60491e-05
3.60693e-05
3.61058e-05
3.62205e-05
3.48774e-05
3.38762e-05
3.00026e-05
2.93488e-05
3.14896e-05
3.36772e-05
3.50152e-05
3.56478e-05
3.58953e-05
3.59769e-05
3.60002e-05
3.59991e-05
3.60026e-05
3.6007e-05
3.60132e-05
3.60211e-05
3.60316e-05
3.60466e-05
3.60714e-05
3.61706e-05
3.44385e-05
3.18725e-05
2.8266e-05
2.8832e-05
3.15104e-05
3.37752e-05
3.50752e-05
3.56708e-05
3.58988e-05
3.59727e-05
3.59933e-05
3.59927e-05
3.59951e-05
3.59984e-05
3.60033e-05
3.60093e-05
3.60171e-05
3.6026e-05
3.60384e-05
3.60462e-05
3.26588e-05
2.67232e-05
2.46594e-05
2.72225e-05
3.10103e-05
3.37435e-05
3.51401e-05
3.57149e-05
3.59146e-05
3.59738e-05
3.59888e-05
3.59883e-05
3.59892e-05
3.59915e-05
3.59953e-05
3.60002e-05
3.60065e-05
3.60136e-05
3.60224e-05
3.60274e-05
3.5732e-05
3.55258e-05
3.55984e-05
3.57724e-05
3.58833e-05
3.59263e-05
3.59632e-05
3.59845e-05
3.5991e-05
3.59906e-05
3.5989e-05
3.5983e-05
3.59834e-05
3.59851e-05
3.59881e-05
3.59921e-05
3.59972e-05
3.60026e-05
3.60094e-05
3.60162e-05
3.60123e-05
3.60065e-05
3.60067e-05
3.60123e-05
3.60139e-05
3.60103e-05
3.60036e-05
3.59969e-05
3.5991e-05
3.59867e-05
3.5984e-05
3.59783e-05
3.59783e-05
3.59795e-05
3.59819e-05
3.59851e-05
3.59893e-05
3.59937e-05
3.59987e-05
3.60024e-05
3.60056e-05
3.60041e-05
3.60039e-05
3.60064e-05
3.60059e-05
3.60028e-05
3.59974e-05
3.59916e-05
3.59863e-05
3.59822e-05
3.59796e-05
3.59737e-05
3.59735e-05
3.59743e-05
3.59762e-05
3.59788e-05
3.59824e-05
3.59862e-05
3.59906e-05
3.59942e-05
3.59971e-05
3.59967e-05
3.5996e-05
3.59968e-05
3.59962e-05
3.59939e-05
3.59898e-05
3.59852e-05
3.59808e-05
3.59774e-05
3.59749e-05
3.59695e-05
3.59691e-05
3.59696e-05
3.5971e-05
3.59732e-05
3.59761e-05
3.59793e-05
3.59829e-05
3.59857e-05
3.59882e-05
3.59885e-05
3.5989e-05
3.59901e-05
3.59896e-05
3.59876e-05
3.59842e-05
3.59802e-05
3.59764e-05
3.59732e-05
3.59709e-05
3.59655e-05
3.59649e-05
3.59652e-05
3.59663e-05
3.59681e-05
3.59706e-05
3.59734e-05
3.59766e-05
3.59793e-05
3.59817e-05
3.59824e-05
3.59827e-05
3.59832e-05
3.59826e-05
3.5981e-05
3.59782e-05
3.5975e-05
3.59717e-05
3.59689e-05
3.59668e-05
3.59618e-05
3.59611e-05
3.59612e-05
3.5962e-05
3.59635e-05
3.59656e-05
3.59679e-05
3.59707e-05
3.59729e-05
3.59751e-05
3.59761e-05
3.59768e-05
3.59776e-05
3.59773e-05
3.59759e-05
3.59735e-05
3.59706e-05
3.59677e-05
3.59652e-05
3.59631e-05
3.59583e-05
3.59576e-05
3.59575e-05
3.59581e-05
3.59593e-05
3.59611e-05
3.59632e-05
3.59656e-05
3.59677e-05
3.59698e-05
3.59709e-05
3.59716e-05
3.5972e-05
3.59717e-05
3.59706e-05
3.59687e-05
3.59663e-05
3.59638e-05
3.59615e-05
3.59596e-05
3.59551e-05
3.59543e-05
3.59542e-05
3.59546e-05
3.59555e-05
3.5957e-05
3.59588e-05
3.59609e-05
3.59628e-05
3.59647e-05
3.59659e-05
3.59668e-05
3.59674e-05
3.59672e-05
3.59663e-05
3.59646e-05
3.59625e-05
3.59602e-05
3.59581e-05
3.59564e-05
3.59521e-05
3.59514e-05
3.59511e-05
3.59514e-05
3.59521e-05
3.59534e-05
3.59549e-05
3.59569e-05
3.59586e-05
3.59604e-05
3.59615e-05
3.59624e-05
3.59629e-05
3.59628e-05
3.59621e-05
3.59606e-05
3.59588e-05
3.59569e-05
3.5955e-05
3.59534e-05
3.59494e-05
3.59486e-05
3.59483e-05
3.59484e-05
3.5949e-05
3.59501e-05
3.59515e-05
3.59532e-05
3.59547e-05
3.59564e-05
3.59575e-05
3.59585e-05
3.5959e-05
3.5959e-05
3.59584e-05
3.59572e-05
3.59556e-05
3.59539e-05
3.59521e-05
3.59506e-05
3.5947e-05
3.59462e-05
3.59458e-05
3.59458e-05
3.59463e-05
3.59472e-05
3.59484e-05
3.59499e-05
3.59514e-05
3.59529e-05
3.5954e-05
3.59549e-05
3.59555e-05
3.59555e-05
3.5955e-05
3.5954e-05
3.59527e-05
3.59511e-05
3.59495e-05
3.59481e-05
3.59447e-05
3.59439e-05
3.59435e-05
3.59435e-05
3.59438e-05
3.59446e-05
3.59456e-05
3.5947e-05
3.59483e-05
3.59498e-05
3.59508e-05
3.59518e-05
3.59523e-05
3.59525e-05
3.59521e-05
3.59512e-05
3.595e-05
3.59486e-05
3.59472e-05
3.59458e-05
3.59427e-05
3.5942e-05
3.59415e-05
3.59414e-05
3.59416e-05
3.59423e-05
3.59432e-05
3.59444e-05
3.59457e-05
3.5947e-05
3.5948e-05
3.59489e-05
3.59495e-05
3.59497e-05
3.59494e-05
3.59487e-05
3.59476e-05
3.59463e-05
3.5945e-05
3.59438e-05
3.5941e-05
3.59402e-05
3.59397e-05
3.59395e-05
3.59397e-05
3.59403e-05
3.5941e-05
3.59422e-05
3.59433e-05
3.59446e-05
3.59456e-05
3.59465e-05
3.5947e-05
3.59473e-05
3.59471e-05
3.59464e-05
3.59455e-05
3.59443e-05
3.59431e-05
3.5942e-05
3.59394e-05
3.59386e-05
3.59381e-05
3.59379e-05
3.5938e-05
3.59385e-05
3.59392e-05
3.59402e-05
3.59413e-05
3.59425e-05
3.59434e-05
3.59443e-05
3.59449e-05
3.59451e-05
3.5945e-05
3.59444e-05
3.59436e-05
3.59426e-05
3.59414e-05
3.59404e-05
3.5938e-05
3.59372e-05
3.59367e-05
3.59365e-05
3.59365e-05
3.59369e-05
3.59375e-05
3.59385e-05
3.59395e-05
3.59406e-05
3.59415e-05
3.59424e-05
3.5943e-05
3.59433e-05
3.59432e-05
3.59427e-05
3.5942e-05
3.5941e-05
3.594e-05
3.59389e-05
3.59368e-05
3.59361e-05
3.59356e-05
3.59353e-05
3.59353e-05
3.59356e-05
3.59362e-05
3.59371e-05
3.5938e-05
3.59391e-05
3.594e-05
3.59408e-05
3.59414e-05
3.59417e-05
3.59417e-05
3.59413e-05
3.59406e-05
3.59397e-05
3.59387e-05
3.59378e-05
3.59358e-05
3.59351e-05
3.59345e-05
3.59342e-05
3.59342e-05
3.59345e-05
3.5935e-05
3.59358e-05
3.59367e-05
3.59377e-05
3.59386e-05
3.59394e-05
3.594e-05
3.59403e-05
3.59403e-05
3.594e-05
3.59394e-05
3.59386e-05
3.59376e-05
3.59367e-05
3.5935e-05
3.59343e-05
3.59337e-05
3.59334e-05
3.59333e-05
3.59336e-05
3.5934e-05
3.59348e-05
3.59356e-05
3.59367e-05
3.59375e-05
3.59384e-05
3.59389e-05
3.59393e-05
3.59393e-05
3.5939e-05
3.59385e-05
3.59377e-05
3.59368e-05
3.59359e-05
3.59343e-05
3.59336e-05
3.5933e-05
3.59326e-05
3.59326e-05
3.59328e-05
3.59332e-05
3.5934e-05
3.59348e-05
3.59358e-05
3.59366e-05
3.59374e-05
3.5938e-05
3.59383e-05
3.59384e-05
3.59381e-05
3.59376e-05
3.59369e-05
3.5936e-05
3.59352e-05
3.59339e-05
3.59332e-05
3.59326e-05
3.59322e-05
3.59321e-05
3.59323e-05
3.59326e-05
3.59334e-05
3.59342e-05
3.59352e-05
3.5936e-05
3.59368e-05
3.59374e-05
3.59378e-05
3.59379e-05
3.59376e-05
3.59372e-05
3.59364e-05
3.59355e-05
3.59348e-05
3.59336e-05
3.59329e-05
3.59323e-05
3.59319e-05
3.59319e-05
3.5932e-05
3.59323e-05
3.59331e-05
3.59338e-05
3.59348e-05
3.59356e-05
3.59364e-05
3.5937e-05
3.59374e-05
3.59375e-05
3.59372e-05
3.59368e-05
3.59361e-05
3.59352e-05
3.59345e-05
3.59656e-05
3.59706e-05
3.59637e-05
3.59624e-05
3.59703e-05
3.59641e-05
3.59631e-05
3.59739e-05
3.59666e-05
3.59772e-05
3.59686e-05
3.59798e-05
3.59703e-05
3.59807e-05
3.59829e-05
3.59703e-05
3.5978e-05
3.59684e-05
3.5966e-05
3.59734e-05
2.65401e-05
2.37349e-05
2.2836e-05
2.39085e-05
2.64767e-05
2.98319e-05
3.32818e-05
3.64264e-05
3.90959e-05
4.12241e-05
4.27695e-05
4.37101e-05
4.40555e-05
4.38561e-05
4.3187e-05
4.2079e-05
4.04423e-05
3.80557e-05
3.47453e-05
3.07213e-05
2.87143e-05
3.15028e-05
3.50654e-05
3.8394e-05
4.09156e-05
4.255e-05
4.35471e-05
4.41515e-05
4.44663e-05
4.44876e-05
4.42555e-05
4.39205e-05
4.35786e-05
4.30542e-05
4.18975e-05
3.97621e-05
3.64913e-05
3.26194e-05
2.93841e-05
2.80004e-05
3.80351e-05
3.91471e-05
4.02109e-05
4.1021e-05
4.15487e-05
4.18253e-05
4.19595e-05
4.20293e-05
4.19735e-05
4.1929e-05
4.23888e-05
4.36821e-05
4.56837e-05
4.78361e-05
4.87965e-05
4.70527e-05
4.34624e-05
4.00658e-05
3.81129e-05
3.76711e-05
3.79688e-05
3.88095e-05
3.93349e-05
3.95908e-05
3.96935e-05
3.97635e-05
3.98708e-05
4.00263e-05
4.01144e-05
4.09796e-05
4.34442e-05
4.5938e-05
4.58397e-05
4.24498e-05
3.81972e-05
3.5472e-05
3.45952e-05
3.49467e-05
3.58798e-05
3.6995e-05
3.81435e-05
3.8483e-05
3.86367e-05
3.87048e-05
3.87708e-05
3.88521e-05
3.89825e-05
3.91583e-05
3.93738e-05
4.25297e-05
5.0188e-05
5.72442e-05
5.83507e-05
5.41945e-05
4.721e-05
4.08924e-05
3.73968e-05
3.64632e-05
3.68595e-05
3.75848e-05
3.79552e-05
3.80579e-05
3.80929e-05
3.81092e-05
3.81534e-05
3.82288e-05
3.83626e-05
3.85463e-05
3.891e-05
4.46039e-05
5.85263e-05
7.08553e-05
6.76346e-05
5.56745e-05
4.52967e-05
3.924e-05
3.69657e-05
3.67811e-05
3.72642e-05
3.77126e-05
3.78707e-05
3.77737e-05
3.77548e-05
3.77757e-05
3.78327e-05
3.79117e-05
3.80359e-05
3.82071e-05
3.85823e-05
4.41829e-05
6.22211e-05
9.34382e-05
0.000116595
0.000106809
8.03421e-05
5.85144e-05
4.64639e-05
4.10877e-05
3.89591e-05
3.81656e-05
3.7629e-05
3.75595e-05
3.7551e-05
3.75687e-05
3.76117e-05
3.76771e-05
3.77795e-05
3.79333e-05
3.82193e-05
3.81432e-05
4.21266e-05
5.7068e-05
7.6113e-05
8.04692e-05
6.84029e-05
5.41544e-05
4.49787e-05
4.04735e-05
3.85849e-05
3.78757e-05
3.74287e-05
3.74144e-05
3.74249e-05
3.74506e-05
3.74906e-05
3.75485e-05
3.76296e-05
3.77658e-05
3.79906e-05
3.64357e-05
3.41008e-05
3.49784e-05
4.35026e-05
5.0097e-05
4.81864e-05
4.34884e-05
4.01059e-05
3.84255e-05
3.77453e-05
3.75049e-05
3.7337e-05
3.73406e-05
3.73519e-05
3.73716e-05
3.74009e-05
3.74466e-05
3.75095e-05
3.76267e-05
3.78104e-05
3.60944e-05
3.37055e-05
3.06618e-05
3.22307e-05
3.60831e-05
3.77124e-05
3.7782e-05
3.75625e-05
3.74248e-05
3.7366e-05
3.73434e-05
3.72889e-05
3.72961e-05
3.73077e-05
3.73255e-05
3.73492e-05
3.73854e-05
3.74326e-05
3.75276e-05
3.7667e-05
3.58405e-05
3.36878e-05
2.96031e-05
2.92064e-05
3.21167e-05
3.47664e-05
3.62482e-05
3.69173e-05
3.71752e-05
3.7259e-05
3.72817e-05
3.72632e-05
3.72693e-05
3.72782e-05
3.72915e-05
3.73092e-05
3.73365e-05
3.73735e-05
3.74482e-05
3.75721e-05
3.56454e-05
3.43001e-05
3.06386e-05
2.9894e-05
3.22565e-05
3.47131e-05
3.61963e-05
3.6885e-05
3.71488e-05
3.72331e-05
3.7256e-05
3.72461e-05
3.72517e-05
3.72593e-05
3.72702e-05
3.7284e-05
3.73042e-05
3.7332e-05
3.73856e-05
3.74856e-05
3.57252e-05
3.37981e-05
2.94834e-05
2.93562e-05
3.21613e-05
3.47276e-05
3.62109e-05
3.68829e-05
3.71363e-05
3.72169e-05
3.72391e-05
3.72344e-05
3.7239e-05
3.72449e-05
3.72532e-05
3.72638e-05
3.72786e-05
3.72995e-05
3.73371e-05
3.74565e-05
3.61835e-05
3.5437e-05
3.13832e-05
3.06973e-05
3.28555e-05
3.50118e-05
3.63039e-05
3.69031e-05
3.71329e-05
3.72071e-05
3.7228e-05
3.72262e-05
3.72299e-05
3.72346e-05
3.72412e-05
3.72495e-05
3.72604e-05
3.72761e-05
3.73017e-05
3.74052e-05
3.57118e-05
3.32618e-05
2.9541e-05
3.0157e-05
3.28684e-05
3.51035e-05
3.63596e-05
3.69238e-05
3.71355e-05
3.72026e-05
3.72209e-05
3.72196e-05
3.72222e-05
3.72257e-05
3.72309e-05
3.72373e-05
3.72454e-05
3.72547e-05
3.72676e-05
3.72752e-05
3.37252e-05
2.75803e-05
2.56293e-05
2.84328e-05
3.23357e-05
3.50613e-05
3.64182e-05
3.69639e-05
3.71492e-05
3.72028e-05
3.72161e-05
3.72149e-05
3.7216e-05
3.72186e-05
3.72226e-05
3.72279e-05
3.72345e-05
3.72418e-05
3.72509e-05
3.72559e-05
3.69504e-05
3.67476e-05
3.68309e-05
3.70086e-05
3.71163e-05
3.71581e-05
3.71935e-05
3.72129e-05
3.72181e-05
3.72172e-05
3.72155e-05
3.72094e-05
3.721e-05
3.7212e-05
3.72152e-05
3.72194e-05
3.72248e-05
3.72305e-05
3.72374e-05
3.72444e-05
3.72403e-05
3.72344e-05
3.72347e-05
3.72404e-05
3.72416e-05
3.72375e-05
3.72304e-05
3.72234e-05
3.72174e-05
3.7213e-05
3.72104e-05
3.72046e-05
3.72048e-05
3.72062e-05
3.72087e-05
3.72122e-05
3.72166e-05
3.72212e-05
3.72263e-05
3.723e-05
3.72333e-05
3.72315e-05
3.72314e-05
3.7234e-05
3.72332e-05
3.72297e-05
3.7224e-05
3.7218e-05
3.72126e-05
3.72084e-05
3.72058e-05
3.71999e-05
3.71998e-05
3.72008e-05
3.72028e-05
3.72056e-05
3.72094e-05
3.72133e-05
3.72179e-05
3.72216e-05
3.72245e-05
3.72239e-05
3.72232e-05
3.7224e-05
3.72232e-05
3.72206e-05
3.72163e-05
3.72114e-05
3.7207e-05
3.72035e-05
3.72011e-05
3.71956e-05
3.71953e-05
3.71959e-05
3.71975e-05
3.71998e-05
3.72029e-05
3.72062e-05
3.72099e-05
3.72127e-05
3.72153e-05
3.72155e-05
3.72159e-05
3.7217e-05
3.72164e-05
3.72142e-05
3.72105e-05
3.72064e-05
3.72025e-05
3.71992e-05
3.71969e-05
3.71914e-05
3.7191e-05
3.71914e-05
3.71926e-05
3.71945e-05
3.71971e-05
3.72e-05
3.72034e-05
3.72061e-05
3.72086e-05
3.72091e-05
3.72094e-05
3.72098e-05
3.72092e-05
3.72074e-05
3.72045e-05
3.72011e-05
3.71977e-05
3.71949e-05
3.71927e-05
3.71876e-05
3.7187e-05
3.71872e-05
3.71881e-05
3.71897e-05
3.71919e-05
3.71943e-05
3.71972e-05
3.71995e-05
3.72017e-05
3.72026e-05
3.72034e-05
3.72041e-05
3.72037e-05
3.72021e-05
3.71996e-05
3.71966e-05
3.71936e-05
3.7191e-05
3.7189e-05
3.7184e-05
3.71834e-05
3.71834e-05
3.71841e-05
3.71853e-05
3.71872e-05
3.71894e-05
3.71919e-05
3.71941e-05
3.71963e-05
3.71972e-05
3.71979e-05
3.71984e-05
3.7198e-05
3.71967e-05
3.71946e-05
3.71921e-05
3.71896e-05
3.71872e-05
3.71853e-05
3.71807e-05
3.718e-05
3.71799e-05
3.71804e-05
3.71814e-05
3.7183e-05
3.71849e-05
3.71871e-05
3.7189e-05
3.7191e-05
3.7192e-05
3.7193e-05
3.71935e-05
3.71933e-05
3.71922e-05
3.71904e-05
3.71882e-05
3.71859e-05
3.71838e-05
3.7182e-05
3.71777e-05
3.71769e-05
3.71767e-05
3.7177e-05
3.71779e-05
3.71792e-05
3.71809e-05
3.71829e-05
3.71846e-05
3.71865e-05
3.71875e-05
3.71884e-05
3.71889e-05
3.71888e-05
3.71879e-05
3.71864e-05
3.71845e-05
3.71825e-05
3.71806e-05
3.71789e-05
3.71749e-05
3.71741e-05
3.71738e-05
3.7174e-05
3.71747e-05
3.71758e-05
3.71772e-05
3.7179e-05
3.71806e-05
3.71823e-05
3.71834e-05
3.71844e-05
3.71849e-05
3.71849e-05
3.71842e-05
3.71829e-05
3.71812e-05
3.71794e-05
3.71776e-05
3.71761e-05
3.71724e-05
3.71716e-05
3.71712e-05
3.71713e-05
3.71718e-05
3.71728e-05
3.7174e-05
3.71756e-05
3.71771e-05
3.71787e-05
3.71798e-05
3.71807e-05
3.71812e-05
3.71812e-05
3.71807e-05
3.71796e-05
3.71782e-05
3.71765e-05
3.71749e-05
3.71735e-05
3.71701e-05
3.71693e-05
3.71689e-05
3.71689e-05
3.71693e-05
3.71701e-05
3.71712e-05
3.71726e-05
3.7174e-05
3.71754e-05
3.71765e-05
3.71774e-05
3.7178e-05
3.71781e-05
3.71776e-05
3.71767e-05
3.71754e-05
3.7174e-05
3.71725e-05
3.71712e-05
3.7168e-05
3.71672e-05
3.71668e-05
3.71667e-05
3.7167e-05
3.71677e-05
3.71687e-05
3.717e-05
3.71712e-05
3.71726e-05
3.71736e-05
3.71745e-05
3.71751e-05
3.71752e-05
3.71749e-05
3.71741e-05
3.7173e-05
3.71717e-05
3.71703e-05
3.71691e-05
3.71662e-05
3.71654e-05
3.71649e-05
3.71648e-05
3.7165e-05
3.71656e-05
3.71664e-05
3.71676e-05
3.71688e-05
3.71701e-05
3.71711e-05
3.7172e-05
3.71725e-05
3.71727e-05
3.71725e-05
3.71718e-05
3.71708e-05
3.71696e-05
3.71683e-05
3.71672e-05
3.71645e-05
3.71638e-05
3.71633e-05
3.71631e-05
3.71632e-05
3.71638e-05
3.71645e-05
3.71656e-05
3.71667e-05
3.71679e-05
3.71688e-05
3.71697e-05
3.71703e-05
3.71705e-05
3.71703e-05
3.71697e-05
3.71689e-05
3.71678e-05
3.71666e-05
3.71655e-05
3.71631e-05
3.71624e-05
3.71618e-05
3.71616e-05
3.71617e-05
3.71621e-05
3.71628e-05
3.71638e-05
3.71648e-05
3.7166e-05
3.71669e-05
3.71678e-05
3.71683e-05
3.71686e-05
3.71685e-05
3.7168e-05
3.71672e-05
3.71662e-05
3.71651e-05
3.71641e-05
3.71619e-05
3.71612e-05
3.71606e-05
3.71604e-05
3.71604e-05
3.71608e-05
3.71614e-05
3.71623e-05
3.71632e-05
3.71644e-05
3.71653e-05
3.71661e-05
3.71667e-05
3.7167e-05
3.71669e-05
3.71665e-05
3.71658e-05
3.71649e-05
3.71638e-05
3.71628e-05
3.71608e-05
3.71601e-05
3.71596e-05
3.71593e-05
3.71593e-05
3.71596e-05
3.71601e-05
3.7161e-05
3.71619e-05
3.7163e-05
3.71638e-05
3.71647e-05
3.71652e-05
3.71656e-05
3.71656e-05
3.71652e-05
3.71645e-05
3.71637e-05
3.71627e-05
3.71618e-05
3.716e-05
3.71593e-05
3.71588e-05
3.71584e-05
3.71584e-05
3.71587e-05
3.71591e-05
3.716e-05
3.71608e-05
3.71619e-05
3.71627e-05
3.71636e-05
3.71641e-05
3.71645e-05
3.71645e-05
3.71642e-05
3.71636e-05
3.71628e-05
3.71618e-05
3.71609e-05
3.71593e-05
3.71586e-05
3.7158e-05
3.71576e-05
3.71576e-05
3.71579e-05
3.71583e-05
3.71591e-05
3.71599e-05
3.71609e-05
3.71618e-05
3.71626e-05
3.71632e-05
3.71635e-05
3.71636e-05
3.71632e-05
3.71627e-05
3.71619e-05
3.7161e-05
3.71602e-05
3.71589e-05
3.71582e-05
3.71576e-05
3.71572e-05
3.71572e-05
3.71574e-05
3.71577e-05
3.71585e-05
3.71593e-05
3.71603e-05
3.71611e-05
3.7162e-05
3.71625e-05
3.7163e-05
3.71631e-05
3.71627e-05
3.71622e-05
3.71615e-05
3.71606e-05
3.71598e-05
3.71586e-05
3.71579e-05
3.71573e-05
3.71569e-05
3.71569e-05
3.71571e-05
3.71574e-05
3.71582e-05
3.71589e-05
3.71599e-05
3.71607e-05
3.71616e-05
3.71621e-05
3.71625e-05
3.71627e-05
3.71623e-05
3.71619e-05
3.71611e-05
3.71602e-05
3.71595e-05
3.71904e-05
3.7195e-05
3.71885e-05
3.71874e-05
3.71947e-05
3.71889e-05
3.71882e-05
3.71984e-05
3.71915e-05
3.72017e-05
3.71935e-05
3.72043e-05
3.71952e-05
3.72051e-05
3.72071e-05
3.71951e-05
3.72023e-05
3.71932e-05
3.7191e-05
3.71977e-05
2.66114e-05
2.41055e-05
2.36692e-05
2.52117e-05
2.81444e-05
3.17014e-05
3.52239e-05
3.83652e-05
4.09922e-05
4.3054e-05
4.45121e-05
4.53459e-05
4.55689e-05
4.52371e-05
4.44251e-05
4.3148e-05
4.12871e-05
3.86058e-05
3.49795e-05
3.07484e-05
3.01096e-05
3.32072e-05
3.68702e-05
4.01399e-05
4.25379e-05
4.40692e-05
4.50026e-05
4.55736e-05
4.58635e-05
4.58473e-05
4.55607e-05
4.5164e-05
4.47506e-05
4.41113e-05
4.2759e-05
4.03655e-05
3.68585e-05
3.29238e-05
2.9892e-05
2.89225e-05
3.94996e-05
4.0594e-05
4.16271e-05
4.2402e-05
4.28964e-05
4.31508e-05
4.32778e-05
4.33508e-05
4.32897e-05
4.32307e-05
4.3687e-05
4.4995e-05
4.70403e-05