/*--------------------------------*- C++ -*----------------------------------*\
| =========                 |                                                 |
| \\      /  F ield         | OpenFOAM: The Open Source CFD Toolbox           |
|  \\    /   O peration     | Version:  2.4.0                                 |
|   \\  /    A nd           | Web:      www.OpenFOAM.org                      |
|    \\/     M anipulation  |                                                 |
\*---------------------------------------------------------------------------*/
FoamFile
{
    version     2.0;
    format      ascii;
    class       volScalarField;
    location    "130";
    object      k;
}
// * * * * * * * * * * * * * * * * * * * * * * * * * * * * * * * * * * * * * //

dimensions      [0 2 -2 0 0 0 0];

internalField   nonuniform List<scalar> 
283312
(
3.09447e-05
2.77024e-05
2.57673e-05
2.56207e-05
2.72073e-05
3.00704e-05
3.35551e-05
3.70763e-05
4.02682e-05
4.29119e-05
4.48571e-05
4.60241e-05
4.64313e-05
4.61862e-05
4.54092e-05
4.41936e-05
4.25848e-05
4.05082e-05
3.7807e-05
3.44501e-05
3.05899e-05
3.25332e-05
3.57138e-05
3.92996e-05
4.25347e-05
4.50158e-05
4.67272e-05
4.78302e-05
4.83841e-05
4.81855e-05
4.69926e-05
4.49566e-05
4.26248e-05
4.05052e-05
3.87184e-05
3.71194e-05
3.53748e-05
3.32928e-05
3.12329e-05
3.00133e-05
4.30203e-05
4.33619e-05
4.42336e-05
4.51978e-05
4.59805e-05
4.64699e-05
4.67194e-05
4.68221e-05
4.65188e-05
4.51089e-05
4.25751e-05
3.99772e-05
3.85521e-05
3.90524e-05
4.13033e-05
4.37838e-05
4.51191e-05
4.50545e-05
4.41275e-05
4.31584e-05
4.23829e-05
4.3392e-05
4.41268e-05
4.45602e-05
4.47654e-05
4.48641e-05
4.49585e-05
4.50761e-05
4.49358e-05
4.38069e-05
4.23606e-05
4.12858e-05
3.99129e-05
3.75597e-05
3.52606e-05
3.46953e-05
3.58911e-05
3.782e-05
3.96098e-05
4.10855e-05
4.29975e-05
4.35304e-05
4.38004e-05
4.39186e-05
4.39885e-05
4.40554e-05
4.41564e-05
4.42924e-05
4.42236e-05
4.38144e-05
4.55365e-05
4.86153e-05
4.93744e-05
4.74601e-05
4.43685e-05
4.13847e-05
3.98899e-05
3.99934e-05
4.09686e-05
4.2095e-05
4.31442e-05
4.33287e-05
4.33941e-05
4.34132e-05
4.34421e-05
4.34967e-05
4.36004e-05
4.37478e-05
4.39015e-05
4.52814e-05
5.25848e-05
6.26753e-05
6.38677e-05
5.61307e-05
4.78342e-05
4.26714e-05
4.09011e-05
4.11311e-05
4.19795e-05
4.27099e-05
4.34495e-05
4.32055e-05
4.31224e-05
4.31113e-05
4.31458e-05
4.32053e-05
4.33044e-05
4.3444e-05
4.36408e-05
4.46228e-05
5.39158e-05
7.62893e-05
0.000100069
0.000102472
8.6186e-05
6.7694e-05
5.51664e-05
4.84997e-05
4.53745e-05
4.40065e-05
4.31887e-05
4.29839e-05
4.29255e-05
4.2921e-05
4.29479e-05
4.29972e-05
4.30792e-05
4.32054e-05
4.34123e-05
4.06304e-05
3.96536e-05
4.87673e-05
6.69982e-05
7.96366e-05
7.65618e-05
6.52665e-05
5.49462e-05
4.84814e-05
4.51927e-05
4.37463e-05
4.28645e-05
4.28022e-05
4.27932e-05
4.28071e-05
4.28363e-05
4.28814e-05
4.29472e-05
4.30591e-05
4.32204e-05
3.83706e-05
3.1596e-05
2.90156e-05
3.66127e-05
4.8747e-05
5.32324e-05
5.10681e-05
4.74623e-05
4.49152e-05
4.36101e-05
4.30614e-05
4.27232e-05
4.27195e-05
4.27246e-05
4.27372e-05
4.27584e-05
4.27935e-05
4.28442e-05
4.29398e-05
4.3067e-05
3.74624e-05
3.02087e-05
2.49453e-05
2.65608e-05
3.38498e-05
3.97119e-05
4.22079e-05
4.28187e-05
4.28436e-05
4.27816e-05
4.27405e-05
4.26673e-05
4.26753e-05
4.26834e-05
4.26958e-05
4.27132e-05
4.2741e-05
4.27788e-05
4.28561e-05
4.29468e-05
3.6715e-05
2.942e-05
2.3726e-05
2.39507e-05
2.96388e-05
3.57207e-05
3.96229e-05
4.15269e-05
4.22979e-05
4.25654e-05
4.26455e-05
4.26441e-05
4.2652e-05
4.26584e-05
4.26675e-05
4.26801e-05
4.27006e-05
4.27297e-05
4.27903e-05
4.28673e-05
3.61244e-05
2.91375e-05
2.40706e-05
2.45041e-05
2.9819e-05
3.56211e-05
3.9497e-05
4.14518e-05
4.22567e-05
4.2537e-05
4.26212e-05
4.26292e-05
4.26367e-05
4.26424e-05
4.26499e-05
4.26597e-05
4.26746e-05
4.26961e-05
4.27392e-05
4.27976e-05
3.58641e-05
2.8394e-05
2.29963e-05
2.41486e-05
2.99724e-05
3.58365e-05
3.96295e-05
4.15064e-05
4.22677e-05
4.25296e-05
4.26078e-05
4.26199e-05
4.26266e-05
4.26311e-05
4.26368e-05
4.26441e-05
4.26546e-05
4.26704e-05
4.27003e-05
4.2775e-05
3.59766e-05
2.92812e-05
2.43539e-05
2.53364e-05
3.07066e-05
3.61917e-05
3.97741e-05
4.15551e-05
4.22777e-05
4.25257e-05
4.25997e-05
4.26141e-05
4.26197e-05
4.26234e-05
4.26279e-05
4.26335e-05
4.26411e-05
4.26527e-05
4.26726e-05
4.27369e-05
3.55472e-05
2.77235e-05
2.32121e-05
2.5383e-05
3.12148e-05
3.66246e-05
4.00132e-05
4.16565e-05
4.23108e-05
4.25317e-05
4.25966e-05
4.2611e-05
4.26146e-05
4.26172e-05
4.26207e-05
4.26249e-05
4.26303e-05
4.26367e-05
4.26459e-05
4.26497e-05
3.57732e-05
2.61607e-05
2.27344e-05
2.62791e-05
3.25419e-05
3.76989e-05
4.06251e-05
4.19258e-05
4.24062e-05
4.25583e-05
4.26003e-05
4.261e-05
4.26108e-05
4.26124e-05
4.26151e-05
4.26185e-05
4.26229e-05
4.26279e-05
4.26343e-05
4.26368e-05
4.18939e-05
4.14381e-05
4.16234e-05
4.20152e-05
4.22819e-05
4.24e-05
4.25026e-05
4.25695e-05
4.2599e-05
4.2608e-05
4.26097e-05
4.26066e-05
4.26069e-05
4.26081e-05
4.26102e-05
4.26129e-05
4.26163e-05
4.26201e-05
4.26247e-05
4.26297e-05
4.26133e-05
4.26029e-05
4.26075e-05
4.26179e-05
4.26228e-05
4.26214e-05
4.26181e-05
4.26148e-05
4.26116e-05
4.26089e-05
4.26072e-05
4.26034e-05
4.26035e-05
4.26044e-05
4.2606e-05
4.26082e-05
4.2611e-05
4.2614e-05
4.26173e-05
4.26198e-05
4.26217e-05
4.26205e-05
4.26204e-05
4.2622e-05
4.26217e-05
4.26196e-05
4.26161e-05
4.26123e-05
4.26088e-05
4.2606e-05
4.26043e-05
4.26004e-05
4.26003e-05
4.26009e-05
4.26022e-05
4.2604e-05
4.26064e-05
4.26089e-05
4.26118e-05
4.26143e-05
4.26161e-05
4.26157e-05
4.26151e-05
4.26155e-05
4.26152e-05
4.26138e-05
4.26111e-05
4.2608e-05
4.26051e-05
4.26028e-05
4.26012e-05
4.25977e-05
4.25975e-05
4.25978e-05
4.25988e-05
4.26003e-05
4.26023e-05
4.26044e-05
4.26067e-05
4.26085e-05
4.26102e-05
4.26103e-05
4.26105e-05
4.26111e-05
4.26108e-05
4.26095e-05
4.26073e-05
4.26047e-05
4.26022e-05
4.26001e-05
4.25986e-05
4.25951e-05
4.25948e-05
4.2595e-05
4.25957e-05
4.25969e-05
4.25986e-05
4.26004e-05
4.26026e-05
4.26043e-05
4.26059e-05
4.26062e-05
4.26063e-05
4.26066e-05
4.26062e-05
4.26052e-05
4.26034e-05
4.26013e-05
4.25992e-05
4.25973e-05
4.25959e-05
4.25927e-05
4.25923e-05
4.25924e-05
4.25929e-05
4.25939e-05
4.25953e-05
4.25969e-05
4.25987e-05
4.26001e-05
4.26015e-05
4.26021e-05
4.26025e-05
4.2603e-05
4.26027e-05
4.26019e-05
4.26003e-05
4.25985e-05
4.25966e-05
4.25949e-05
4.25936e-05
4.25904e-05
4.259e-05
4.259e-05
4.25904e-05
4.25912e-05
4.25924e-05
4.25937e-05
4.25953e-05
4.25967e-05
4.25981e-05
4.25987e-05
4.25991e-05
4.25994e-05
4.25992e-05
4.25985e-05
4.25972e-05
4.25956e-05
4.2594e-05
4.25925e-05
4.25913e-05
4.25884e-05
4.25879e-05
4.25878e-05
4.25881e-05
4.25887e-05
4.25897e-05
4.25909e-05
4.25923e-05
4.25935e-05
4.25947e-05
4.25954e-05
4.2596e-05
4.25963e-05
4.25962e-05
4.25956e-05
4.25945e-05
4.25932e-05
4.25917e-05
4.25903e-05
4.25892e-05
4.25864e-05
4.25859e-05
4.25858e-05
4.2586e-05
4.25865e-05
4.25873e-05
4.25883e-05
4.25896e-05
4.25907e-05
4.25919e-05
4.25926e-05
4.25931e-05
4.25935e-05
4.25934e-05
4.25929e-05
4.2592e-05
4.25908e-05
4.25895e-05
4.25883e-05
4.25872e-05
4.25847e-05
4.25842e-05
4.25839e-05
4.25841e-05
4.25845e-05
4.25852e-05
4.2586e-05
4.25872e-05
4.25882e-05
4.25892e-05
4.259e-05
4.25906e-05
4.25909e-05
4.25909e-05
4.25905e-05
4.25898e-05
4.25887e-05
4.25876e-05
4.25864e-05
4.25855e-05
4.25831e-05
4.25826e-05
4.25823e-05
4.25823e-05
4.25827e-05
4.25833e-05
4.2584e-05
4.2585e-05
4.2586e-05
4.2587e-05
4.25877e-05
4.25882e-05
4.25886e-05
4.25886e-05
4.25883e-05
4.25877e-05
4.25868e-05
4.25858e-05
4.25847e-05
4.25838e-05
4.25816e-05
4.25811e-05
4.25808e-05
4.25808e-05
4.2581e-05
4.25816e-05
4.25822e-05
4.25831e-05
4.2584e-05
4.25849e-05
4.25856e-05
4.25862e-05
4.25866e-05
4.25866e-05
4.25864e-05
4.25858e-05
4.25851e-05
4.25841e-05
4.25832e-05
4.25823e-05
4.25803e-05
4.25798e-05
4.25795e-05
4.25794e-05
4.25796e-05
4.258e-05
4.25806e-05
4.25814e-05
4.25822e-05
4.25831e-05
4.25838e-05
4.25843e-05
4.25847e-05
4.25848e-05
4.25847e-05
4.25842e-05
4.25835e-05
4.25827e-05
4.25818e-05
4.2581e-05
4.25792e-05
4.25787e-05
4.25783e-05
4.25782e-05
4.25783e-05
4.25787e-05
4.25792e-05
4.258e-05
4.25807e-05
4.25815e-05
4.25822e-05
4.25827e-05
4.25831e-05
4.25832e-05
4.25831e-05
4.25827e-05
4.25821e-05
4.25814e-05
4.25806e-05
4.25798e-05
4.25781e-05
4.25776e-05
4.25773e-05
4.25772e-05
4.25772e-05
4.25776e-05
4.2578e-05
4.25787e-05
4.25794e-05
4.25801e-05
4.25808e-05
4.25813e-05
4.25817e-05
4.25819e-05
4.25818e-05
4.25814e-05
4.25809e-05
4.25802e-05
4.25795e-05
4.25788e-05
4.25772e-05
4.25767e-05
4.25764e-05
4.25762e-05
4.25763e-05
4.25765e-05
4.25769e-05
4.25775e-05
4.25782e-05
4.25789e-05
4.25795e-05
4.25801e-05
4.25805e-05
4.25806e-05
4.25806e-05
4.25803e-05
4.25798e-05
4.25792e-05
4.25785e-05
4.25779e-05
4.25765e-05
4.2576e-05
4.25756e-05
4.25754e-05
4.25755e-05
4.25757e-05
4.2576e-05
4.25766e-05
4.25772e-05
4.25779e-05
4.25785e-05
4.2579e-05
4.25794e-05
4.25796e-05
4.25796e-05
4.25794e-05
4.25789e-05
4.25784e-05
4.25777e-05
4.25771e-05
4.25758e-05
4.25753e-05
4.2575e-05
4.25747e-05
4.25747e-05
4.25749e-05
4.25752e-05
4.25758e-05
4.25763e-05
4.2577e-05
4.25776e-05
4.25781e-05
4.25785e-05
4.25787e-05
4.25787e-05
4.25785e-05
4.25781e-05
4.25776e-05
4.2577e-05
4.25764e-05
4.25753e-05
4.25748e-05
4.25745e-05
4.25742e-05
4.25742e-05
4.25744e-05
4.25746e-05
4.25751e-05
4.25757e-05
4.25763e-05
4.25769e-05
4.25774e-05
4.25778e-05
4.2578e-05
4.25781e-05
4.25779e-05
4.25775e-05
4.2577e-05
4.25764e-05
4.25759e-05
4.25748e-05
4.25744e-05
4.2574e-05
4.25737e-05
4.25737e-05
4.25738e-05
4.25741e-05
4.25746e-05
4.25751e-05
4.25757e-05
4.25763e-05
4.25768e-05
4.25772e-05
4.25774e-05
4.25775e-05
4.25773e-05
4.2577e-05
4.25765e-05
4.25759e-05
4.25754e-05
4.25746e-05
4.25741e-05
4.25737e-05
4.25735e-05
4.25734e-05
4.25735e-05
4.25737e-05
4.25742e-05
4.25747e-05
4.25753e-05
4.25759e-05
4.25764e-05
4.25768e-05
4.25771e-05
4.25772e-05
4.2577e-05
4.25767e-05
4.25762e-05
4.25756e-05
4.25751e-05
4.25745e-05
4.2574e-05
4.25736e-05
4.25733e-05
4.25733e-05
4.25734e-05
4.25736e-05
4.25741e-05
4.25746e-05
4.25752e-05
4.25757e-05
4.25762e-05
4.25766e-05
4.25769e-05
4.2577e-05
4.25768e-05
4.25765e-05
4.2576e-05
4.25755e-05
4.2575e-05
4.26041e-05
4.2609e-05
4.26027e-05
4.26015e-05
4.26089e-05
4.26032e-05
4.26021e-05
4.26118e-05
4.26051e-05
4.26144e-05
4.26064e-05
4.26163e-05
4.26076e-05
4.26169e-05
4.26191e-05
4.26076e-05
4.26146e-05
4.2606e-05
4.26039e-05
4.2611e-05
3.00805e-05
2.70594e-05
2.55549e-05
2.59233e-05
2.79821e-05
3.11982e-05
3.48695e-05
3.84548e-05
4.16316e-05
4.4204e-05
4.60288e-05
4.70306e-05
4.72384e-05
4.67759e-05
4.57792e-05
4.43314e-05
4.24737e-05
4.01244e-05
3.71472e-05
3.35875e-05
3.07166e-05
3.31605e-05
3.6671e-05
4.03856e-05
4.35998e-05
4.59897e-05
4.76189e-05
4.8659e-05
4.91516e-05
4.88458e-05
4.74607e-05
4.51598e-05
4.25356e-05
4.0129e-05
3.80696e-05
3.62311e-05
3.43126e-05
3.22055e-05
3.03518e-05
2.95684e-05
4.32752e-05
4.39217e-05
4.49508e-05
4.59649e-05
4.67401e-05
4.72019e-05
4.74339e-05
4.75294e-05
4.71891e-05
4.5616e-05
4.27687e-05
3.97837e-05
3.79861e-05
3.81654e-05
4.01205e-05
4.23813e-05
4.36971e-05
4.38694e-05
4.33794e-05
4.293e-05
4.30859e-05
4.41573e-05
4.48952e-05
4.53089e-05
4.54972e-05
4.55915e-05
4.56879e-05
4.58105e-05
4.56529e-05
4.43373e-05
4.25033e-05
4.09104e-05
3.90255e-05
3.63586e-05
3.41003e-05
3.38295e-05
3.54198e-05
3.77383e-05
3.9873e-05
4.16173e-05
4.37573e-05
4.4287e-05
4.45433e-05
4.46523e-05
4.47201e-05
4.47878e-05
4.48925e-05
4.50331e-05
4.49527e-05
4.42927e-05
4.5506e-05
4.78154e-05
4.78282e-05
4.55533e-05
4.25535e-05
4.0132e-05
3.93932e-05
4.01314e-05
4.14956e-05
4.28007e-05
4.3892e-05
4.40685e-05
4.41289e-05
4.4147e-05
4.41785e-05
4.42359e-05
4.43432e-05
4.4494e-05
4.46444e-05
4.58151e-05
5.26865e-05
6.17411e-05
6.17655e-05
5.3905e-05
4.61672e-05
4.18672e-05
4.08703e-05
4.15851e-05
4.2654e-05
4.34512e-05
4.41332e-05
4.39241e-05
4.38548e-05
4.38495e-05
4.3887e-05
4.39482e-05
4.40496e-05
4.41916e-05
4.4386e-05
4.52202e-05
5.43817e-05
7.58017e-05
9.70454e-05
9.73029e-05
8.13756e-05
6.46966e-05
5.39006e-05
4.83173e-05
4.5732e-05
4.45974e-05
4.38875e-05
4.37111e-05
4.36626e-05
4.36621e-05
4.36911e-05
4.3742e-05
4.38257e-05
4.3954e-05
4.41651e-05
4.12266e-05
4.03116e-05
4.92511e-05
6.60682e-05
7.69037e-05
7.33858e-05
6.30975e-05
5.40378e-05
4.84428e-05
4.56101e-05
4.43654e-05
4.35936e-05
4.35411e-05
4.35356e-05
4.35511e-05
4.35812e-05
4.36271e-05
4.36938e-05
4.38076e-05
4.39714e-05
3.88491e-05
3.19211e-05
2.92738e-05
3.66463e-05
4.80347e-05
5.22645e-05
5.05314e-05
4.74958e-05
4.53375e-05
4.42281e-05
4.37607e-05
4.34646e-05
4.34624e-05
4.34684e-05
4.34818e-05
4.35037e-05
4.35396e-05
4.35909e-05
4.36884e-05
4.38167e-05
3.79204e-05
3.05459e-05
2.52533e-05
2.69214e-05
3.41497e-05
4.00233e-05
4.26627e-05
4.34196e-05
4.35302e-05
4.35052e-05
4.34774e-05
4.34118e-05
4.34197e-05
4.34281e-05
4.3441e-05
4.34588e-05
4.34871e-05
4.35254e-05
4.3604e-05
4.36948e-05
3.71559e-05
2.97759e-05
2.40705e-05
2.44665e-05
3.03385e-05
3.6506e-05
4.04219e-05
4.23095e-05
4.30614e-05
4.33169e-05
4.33917e-05
4.33891e-05
4.33966e-05
4.34032e-05
4.34127e-05
4.34257e-05
4.34467e-05
4.34762e-05
4.35378e-05
4.36149e-05
3.65464e-05
2.95415e-05
2.44925e-05
2.51041e-05
3.06323e-05
3.65118e-05
4.03604e-05
4.22628e-05
4.30301e-05
4.32915e-05
4.33683e-05
4.33744e-05
4.33815e-05
4.33874e-05
4.33951e-05
4.34052e-05
4.34204e-05
4.34423e-05
4.3486e-05
4.35446e-05
3.62863e-05
2.87714e-05
2.33912e-05
2.47619e-05
3.08051e-05
3.67377e-05
4.04953e-05
4.23166e-05
4.30402e-05
4.32838e-05
4.33551e-05
4.33652e-05
4.33715e-05
4.33761e-05
4.3382e-05
4.33895e-05
4.34003e-05
4.34164e-05
4.34467e-05
4.35227e-05
3.64172e-05
2.97389e-05
2.48145e-05
2.59738e-05
3.15396e-05
3.70871e-05
4.06351e-05
4.23627e-05
4.3049e-05
4.32796e-05
4.33469e-05
4.33593e-05
4.33646e-05
4.33683e-05
4.3373e-05
4.33788e-05
4.33867e-05
4.33984e-05
4.34187e-05
4.34844e-05
3.59637e-05
2.80929e-05
2.36419e-05
2.60377e-05
3.20599e-05
3.75189e-05
4.08686e-05
4.24595e-05
4.30797e-05
4.32847e-05
4.33436e-05
4.3356e-05
4.33594e-05
4.33621e-05
4.33657e-05
4.33701e-05
4.33757e-05
4.33822e-05
4.33916e-05
4.33952e-05
3.61603e-05
2.63095e-05
2.30683e-05
2.69507e-05
3.34203e-05
3.85995e-05
4.14697e-05
4.27178e-05
4.3169e-05
4.33086e-05
4.33465e-05
4.33546e-05
4.33555e-05
4.33573e-05
4.336e-05
4.33636e-05
4.33681e-05
4.33732e-05
4.33797e-05
4.33821e-05
4.26028e-05
4.2156e-05
4.23698e-05
4.27733e-05
4.30363e-05
4.31531e-05
4.32542e-05
4.3318e-05
4.33451e-05
4.3353e-05
4.33543e-05
4.33511e-05
4.33515e-05
4.33529e-05
4.3355e-05
4.33579e-05
4.33614e-05
4.33652e-05
4.337e-05
4.3375e-05
4.33578e-05
4.33477e-05
4.33528e-05
4.33634e-05
4.33679e-05
4.33662e-05
4.33628e-05
4.33593e-05
4.3356e-05
4.33533e-05
4.33517e-05
4.33479e-05
4.33481e-05
4.33491e-05
4.33508e-05
4.33531e-05
4.3356e-05
4.33591e-05
4.33624e-05
4.33649e-05
4.33668e-05
4.33655e-05
4.33653e-05
4.3367e-05
4.33665e-05
4.33643e-05
4.33606e-05
4.33567e-05
4.33531e-05
4.33504e-05
4.33487e-05
4.33449e-05
4.33449e-05
4.33456e-05
4.33469e-05
4.33488e-05
4.33513e-05
4.33539e-05
4.33568e-05
4.33593e-05
4.3361e-05
4.33605e-05
4.33599e-05
4.33604e-05
4.33599e-05
4.33584e-05
4.33556e-05
4.33524e-05
4.33495e-05
4.33472e-05
4.33456e-05
4.33421e-05
4.3342e-05
4.33424e-05
4.33435e-05
4.3345e-05
4.3347e-05
4.33492e-05
4.33516e-05
4.33534e-05
4.3355e-05
4.33551e-05
4.33553e-05
4.33559e-05
4.33555e-05
4.33541e-05
4.33518e-05
4.33491e-05
4.33465e-05
4.33444e-05
4.3343e-05
4.33395e-05
4.33392e-05
4.33395e-05
4.33403e-05
4.33416e-05
4.33433e-05
4.33452e-05
4.33474e-05
4.33491e-05
4.33507e-05
4.33509e-05
4.3351e-05
4.33513e-05
4.33509e-05
4.33498e-05
4.33479e-05
4.33457e-05
4.33435e-05
4.33417e-05
4.33403e-05
4.33371e-05
4.33367e-05
4.33368e-05
4.33375e-05
4.33385e-05
4.33399e-05
4.33415e-05
4.33434e-05
4.33449e-05
4.33462e-05
4.33468e-05
4.33472e-05
4.33476e-05
4.33473e-05
4.33464e-05
4.33447e-05
4.33428e-05
4.33409e-05
4.33392e-05
4.33379e-05
4.33348e-05
4.33344e-05
4.33344e-05
4.33348e-05
4.33357e-05
4.33369e-05
4.33383e-05
4.334e-05
4.33414e-05
4.33427e-05
4.33433e-05
4.33437e-05
4.33439e-05
4.33437e-05
4.33429e-05
4.33416e-05
4.334e-05
4.33383e-05
4.33368e-05
4.33356e-05
4.33327e-05
4.33322e-05
4.33321e-05
4.33325e-05
4.33332e-05
4.33342e-05
4.33354e-05
4.33368e-05
4.33381e-05
4.33393e-05
4.334e-05
4.33405e-05
4.33409e-05
4.33407e-05
4.334e-05
4.33389e-05
4.33375e-05
4.3336e-05
4.33346e-05
4.33335e-05
4.33307e-05
4.33302e-05
4.33301e-05
4.33303e-05
4.33309e-05
4.33318e-05
4.33328e-05
4.33341e-05
4.33353e-05
4.33364e-05
4.33371e-05
4.33376e-05
4.33379e-05
4.33378e-05
4.33373e-05
4.33363e-05
4.33351e-05
4.33338e-05
4.33326e-05
4.33315e-05
4.33289e-05
4.33285e-05
4.33283e-05
4.33284e-05
4.33288e-05
4.33296e-05
4.33305e-05
4.33316e-05
4.33327e-05
4.33337e-05
4.33344e-05
4.3335e-05
4.33354e-05
4.33353e-05
4.33349e-05
4.33341e-05
4.3333e-05
4.33318e-05
4.33307e-05
4.33297e-05
4.33273e-05
4.33268e-05
4.33266e-05
4.33267e-05
4.3327e-05
4.33276e-05
4.33284e-05
4.33294e-05
4.33304e-05
4.33314e-05
4.33321e-05
4.33327e-05
4.3333e-05
4.3333e-05
4.33327e-05
4.3332e-05
4.3331e-05
4.333e-05
4.3329e-05
4.33281e-05
4.33258e-05
4.33253e-05
4.33251e-05
4.33251e-05
4.33254e-05
4.33259e-05
4.33266e-05
4.33275e-05
4.33284e-05
4.33293e-05
4.333e-05
4.33306e-05
4.33309e-05
4.3331e-05
4.33307e-05
4.33301e-05
4.33293e-05
4.33284e-05
4.33274e-05
4.33266e-05
4.33245e-05
4.3324e-05
4.33237e-05
4.33237e-05
4.33239e-05
4.33244e-05
4.3325e-05
4.33258e-05
4.33266e-05
4.33275e-05
4.33281e-05
4.33287e-05
4.33291e-05
4.33291e-05
4.33289e-05
4.33284e-05
4.33277e-05
4.33269e-05
4.3326e-05
4.33252e-05
4.33234e-05
4.33229e-05
4.33225e-05
4.33225e-05
4.33226e-05
4.3323e-05
4.33235e-05
4.33243e-05
4.3325e-05
4.33258e-05
4.33265e-05
4.3327e-05
4.33274e-05
4.33275e-05
4.33274e-05
4.3327e-05
4.33263e-05
4.33256e-05
4.33248e-05
4.3324e-05
4.33223e-05
4.33218e-05
4.33215e-05
4.33214e-05
4.33215e-05
4.33218e-05
4.33223e-05
4.3323e-05
4.33237e-05
4.33244e-05
4.33251e-05
4.33256e-05
4.3326e-05
4.33261e-05
4.3326e-05
4.33257e-05
4.33251e-05
4.33244e-05
4.33237e-05
4.3323e-05
4.33214e-05
4.33209e-05
4.33206e-05
4.33204e-05
4.33205e-05
4.33208e-05
4.33212e-05
4.33218e-05
4.33225e-05
4.33232e-05
4.33238e-05
4.33243e-05
4.33247e-05
4.33249e-05
4.33248e-05
4.33245e-05
4.3324e-05
4.33234e-05
4.33227e-05
4.3322e-05
4.33206e-05
4.33202e-05
4.33198e-05
4.33196e-05
4.33197e-05
4.33199e-05
4.33203e-05
4.33209e-05
4.33215e-05
4.33222e-05
4.33227e-05
4.33233e-05
4.33237e-05
4.33239e-05
4.33238e-05
4.33235e-05
4.33231e-05
4.33225e-05
4.33219e-05
4.33212e-05
4.33199e-05
4.33195e-05
4.33191e-05
4.33189e-05
4.33189e-05
4.33191e-05
4.33195e-05
4.332e-05
4.33206e-05
4.33213e-05
4.33218e-05
4.33224e-05
4.33227e-05
4.33229e-05
4.33229e-05
4.33227e-05
4.33223e-05
4.33218e-05
4.33211e-05
4.33205e-05
4.33194e-05
4.3319e-05
4.33186e-05
4.33184e-05
4.33184e-05
4.33185e-05
4.33188e-05
4.33194e-05
4.33199e-05
4.33206e-05
4.33211e-05
4.33217e-05
4.3322e-05
4.33223e-05
4.33223e-05
4.33221e-05
4.33217e-05
4.33212e-05
4.33206e-05
4.332e-05
4.3319e-05
4.33185e-05
4.33181e-05
4.33179e-05
4.33179e-05
4.3318e-05
4.33183e-05
4.33188e-05
4.33193e-05
4.332e-05
4.33205e-05
4.3321e-05
4.33214e-05
4.33216e-05
4.33217e-05
4.33215e-05
4.33211e-05
4.33206e-05
4.33201e-05
4.33195e-05
4.33187e-05
4.33183e-05
4.33179e-05
4.33176e-05
4.33176e-05
4.33177e-05
4.33179e-05
4.33184e-05
4.33189e-05
4.33196e-05
4.33201e-05
4.33206e-05
4.3321e-05
4.33213e-05
4.33213e-05
4.33211e-05
4.33208e-05
4.33204e-05
4.33198e-05
4.33193e-05
4.33186e-05
4.33181e-05
4.33177e-05
4.33175e-05
4.33174e-05
4.33176e-05
4.33178e-05
4.33183e-05
4.33188e-05
4.33194e-05
4.33199e-05
4.33204e-05
4.33208e-05
4.33211e-05
4.33211e-05
4.33209e-05
4.33206e-05
4.33202e-05
4.33196e-05
4.33191e-05
4.33476e-05
4.3352e-05
4.33462e-05
4.33452e-05
4.3352e-05
4.33467e-05
4.33458e-05
4.33549e-05
4.33486e-05
4.33575e-05
4.33499e-05
4.33593e-05
4.33511e-05
4.33599e-05
4.33618e-05
4.33509e-05
4.33575e-05
4.33495e-05
4.33476e-05
4.33541e-05
2.9198e-05
2.64686e-05
2.54441e-05
2.6344e-05
2.8864e-05
3.23949e-05
3.62232e-05
3.98531e-05
4.30011e-05
4.54914e-05
4.71855e-05
4.8011e-05
4.80075e-05
4.73145e-05
4.60806e-05
4.43827e-05
4.22577e-05
3.96221e-05
3.63729e-05
3.26456e-05
3.09437e-05
3.38727e-05
3.76791e-05
4.14932e-05
4.4672e-05
4.69786e-05
4.85299e-05
4.95086e-05
4.99385e-05
4.95177e-05
4.79251e-05
4.53398e-05
4.24031e-05
3.96904e-05
3.73451e-05
3.52627e-05
3.31864e-05
3.10974e-05
2.95086e-05
2.92103e-05
4.35769e-05
4.45237e-05
4.57009e-05
4.67576e-05
4.75209e-05
4.79554e-05
4.81714e-05
4.82612e-05
4.78817e-05
4.6132e-05
4.29492e-05
3.95556e-05
3.73686e-05
3.72123e-05
3.88606e-05
4.09082e-05
4.22307e-05
4.26752e-05
4.26566e-05
4.27498e-05
4.3828e-05
4.49522e-05
4.56876e-05
4.60802e-05
4.62528e-05
4.63433e-05
4.64424e-05
4.65705e-05
4.63947e-05
4.48767e-05
4.26291e-05
4.04972e-05
3.80989e-05
3.51418e-05
3.29583e-05
3.30035e-05
3.49986e-05
3.77126e-05
4.0194e-05
4.22011e-05
4.45444e-05
4.50671e-05
4.53093e-05
4.54099e-05
4.54765e-05
4.55453e-05
4.5654e-05
4.57992e-05
4.57076e-05
4.47722e-05
4.54347e-05
4.69428e-05
4.62203e-05
4.36286e-05
4.0779e-05
3.89668e-05
3.8995e-05
4.03511e-05
4.20806e-05
4.35454e-05
4.46644e-05
4.48327e-05
4.48884e-05
4.4906e-05
4.49404e-05
4.50004e-05
4.51115e-05
4.52657e-05
4.5413e-05
4.63442e-05
5.27207e-05
6.06701e-05
5.9569e-05
5.16641e-05
4.4556e-05
4.11537e-05
4.09247e-05
4.21011e-05
4.33694e-05
4.42218e-05
4.48454e-05
4.4669e-05
4.46128e-05
4.4613e-05
4.46534e-05
4.47163e-05
4.48199e-05
4.49644e-05
4.51563e-05
4.58189e-05
5.47904e-05
7.51032e-05
9.36996e-05
9.19918e-05
7.66339e-05
6.18397e-05
5.27518e-05
4.82114e-05
4.61384e-05
4.52231e-05
4.46146e-05
4.44645e-05
4.44253e-05
4.44285e-05
4.44597e-05
4.4512e-05
4.45974e-05
4.4728e-05
4.49433e-05
4.18377e-05
4.09801e-05
4.96609e-05
6.4947e-05
7.39928e-05
7.01878e-05
6.1002e-05
5.32129e-05
4.84676e-05
4.6072e-05
4.50181e-05
4.43488e-05
4.43054e-05
4.43032e-05
4.43202e-05
4.43511e-05
4.4398e-05
4.44656e-05
4.45813e-05
4.47475e-05
3.93379e-05
3.22599e-05
2.95277e-05
3.66096e-05
4.72416e-05
5.12903e-05
5.00404e-05
4.75821e-05
4.58028e-05
4.48796e-05
4.44883e-05
4.42311e-05
4.42305e-05
4.42373e-05
4.42515e-05
4.42742e-05
4.43109e-05
4.43629e-05
4.44621e-05
4.45916e-05
3.83893e-05
3.09026e-05
2.55779e-05
2.72823e-05
3.445e-05
4.03582e-05
4.31532e-05
4.40548e-05
4.42465e-05
4.42557e-05
4.42399e-05
4.41813e-05
4.41891e-05
4.41978e-05
4.42112e-05
4.42294e-05
4.42583e-05
4.4297e-05
4.43771e-05
4.44678e-05
3.76083e-05
3.01545e-05
2.4438e-05
2.50081e-05
3.10676e-05
3.73222e-05
4.12494e-05
4.3118e-05
4.38496e-05
4.4093e-05
4.41627e-05
4.4159e-05
4.41663e-05
4.41732e-05
4.4183e-05
4.41964e-05
4.42179e-05
4.42478e-05
4.43104e-05
4.43876e-05
3.69798e-05
2.99746e-05
2.4942e-05
2.57367e-05
3.14807e-05
3.74333e-05
4.12496e-05
4.30976e-05
4.38272e-05
4.40703e-05
4.41402e-05
4.41446e-05
4.41514e-05
4.41574e-05
4.41655e-05
4.41758e-05
4.41914e-05
4.42136e-05
4.4258e-05
4.43166e-05
3.67207e-05
2.91757e-05
2.38129e-05
2.54085e-05
3.16731e-05
3.76691e-05
4.13864e-05
4.31505e-05
4.38364e-05
4.40624e-05
4.41271e-05
4.41354e-05
4.41414e-05
4.41462e-05
4.41523e-05
4.416e-05
4.41712e-05
4.41876e-05
4.42183e-05
4.42955e-05
3.68721e-05
3.02297e-05
2.53036e-05
2.6644e-05
3.24074e-05
3.80125e-05
4.15214e-05
4.31939e-05
4.38441e-05
4.40578e-05
4.4119e-05
4.41295e-05
4.41345e-05
4.41384e-05
4.41432e-05
4.41492e-05
4.41573e-05
4.41693e-05
4.41898e-05
4.4257e-05
3.63931e-05
2.84896e-05
2.40999e-05
2.67262e-05
3.29398e-05
3.84427e-05
4.17489e-05
4.32861e-05
4.38724e-05
4.40621e-05
4.41155e-05
4.4126e-05
4.41292e-05
4.41321e-05
4.41358e-05
4.41404e-05
4.41461e-05
4.41528e-05
4.41624e-05
4.41658e-05
3.65545e-05
2.64655e-05
2.34275e-05
2.76601e-05
3.43346e-05
3.95282e-05
4.23382e-05
4.35331e-05
4.39556e-05
4.40836e-05
4.41175e-05
4.41242e-05
4.41252e-05
4.41271e-05
4.413e-05
4.41337e-05
4.41384e-05
4.41436e-05
4.41502e-05
4.41526e-05
4.33351e-05
4.28993e-05
4.31426e-05
4.35571e-05
4.38157e-05
4.39314e-05
4.40307e-05
4.40912e-05
4.4116e-05
4.41229e-05
4.41239e-05
4.41207e-05
4.41212e-05
4.41227e-05
4.4125e-05
4.41279e-05
4.41316e-05
4.41355e-05
4.41403e-05
4.41454e-05
4.41272e-05
4.41175e-05
4.41232e-05
4.41339e-05
4.41381e-05
4.41361e-05
4.41325e-05
4.41288e-05
4.41254e-05
4.41227e-05
4.41212e-05
4.41175e-05
4.41177e-05
4.41188e-05
4.41206e-05
4.4123e-05
4.41261e-05
4.41292e-05
4.41326e-05
4.41351e-05
4.41369e-05
4.41355e-05
4.41353e-05
4.4137e-05
4.41363e-05
4.41339e-05
4.41301e-05
4.41261e-05
4.41225e-05
4.41198e-05
4.41181e-05
4.41144e-05
4.41144e-05
4.41152e-05
4.41167e-05
4.41187e-05
4.41212e-05
4.41239e-05
4.41269e-05
4.41294e-05
4.41311e-05
4.41304e-05
4.41298e-05
4.41302e-05
4.41297e-05
4.4128e-05
4.4125e-05
4.41218e-05
4.41189e-05
4.41166e-05
4.41151e-05
4.41116e-05
4.41115e-05
4.4112e-05
4.41131e-05
4.41148e-05
4.41169e-05
4.41191e-05
4.41215e-05
4.41233e-05
4.41249e-05
4.41249e-05
4.41251e-05
4.41257e-05
4.41252e-05
4.41237e-05
4.41212e-05
4.41185e-05
4.41159e-05
4.41138e-05
4.41124e-05
4.41089e-05
4.41087e-05
4.4109e-05
4.41099e-05
4.41113e-05
4.41131e-05
4.4115e-05
4.41172e-05
4.41189e-05
4.41205e-05
4.41207e-05
4.41207e-05
4.4121e-05
4.41205e-05
4.41193e-05
4.41173e-05
4.41151e-05
4.41129e-05
4.4111e-05
4.41097e-05
4.41065e-05
4.41061e-05
4.41063e-05
4.4107e-05
4.41081e-05
4.41096e-05
4.41112e-05
4.41131e-05
4.41146e-05
4.4116e-05
4.41165e-05
4.41169e-05
4.41173e-05
4.41169e-05
4.41159e-05
4.41142e-05
4.41122e-05
4.41103e-05
4.41086e-05
4.41073e-05
4.41041e-05
4.41038e-05
4.41038e-05
4.41043e-05
4.41052e-05
4.41065e-05
4.4108e-05
4.41096e-05
4.4111e-05
4.41124e-05
4.41129e-05
4.41133e-05
4.41135e-05
4.41132e-05
4.41124e-05
4.4111e-05
4.41093e-05
4.41077e-05
4.41061e-05
4.41049e-05
4.4102e-05
4.41016e-05
4.41016e-05
4.41019e-05
4.41027e-05
4.41037e-05
4.4105e-05
4.41064e-05
4.41077e-05
4.41089e-05
4.41096e-05
4.41101e-05
4.41104e-05
4.41102e-05
4.41095e-05
4.41083e-05
4.41068e-05
4.41053e-05
4.41039e-05
4.41028e-05
4.41e-05
4.40996e-05
4.40995e-05
4.40997e-05
4.41003e-05
4.41013e-05
4.41023e-05
4.41036e-05
4.41048e-05
4.41059e-05
4.41066e-05
4.41071e-05
4.41074e-05
4.41073e-05
4.41067e-05
4.41057e-05
4.41044e-05
4.41031e-05
4.41019e-05
4.41008e-05
4.40982e-05
4.40978e-05
4.40976e-05
4.40978e-05
4.40982e-05
4.4099e-05
4.41e-05
4.41011e-05
4.41021e-05
4.41032e-05
4.41039e-05
4.41045e-05
4.41048e-05
4.41047e-05
4.41043e-05
4.41034e-05
4.41023e-05
4.41011e-05
4.41e-05
4.4099e-05
4.40966e-05
4.40961e-05
4.40959e-05
4.4096e-05
4.40964e-05
4.4097e-05
4.40978e-05
4.40989e-05
4.40998e-05
4.41009e-05
4.41015e-05
4.41021e-05
4.41024e-05
4.41024e-05
4.4102e-05
4.41013e-05
4.41003e-05
4.40993e-05
4.40982e-05
4.40973e-05
4.40951e-05
4.40946e-05
4.40944e-05
4.40944e-05
4.40947e-05
4.40952e-05
4.4096e-05
4.40969e-05
4.40978e-05
4.40987e-05
4.40994e-05
4.41e-05
4.41003e-05
4.41003e-05
4.41e-05
4.40994e-05
4.40986e-05
4.40976e-05
4.40966e-05
4.40958e-05
4.40938e-05
4.40933e-05
4.4093e-05
4.4093e-05
4.40932e-05
4.40937e-05
4.40943e-05
4.40952e-05
4.4096e-05
4.40968e-05
4.40975e-05
4.40981e-05
4.40984e-05
4.40985e-05
4.40982e-05
4.40977e-05
4.4097e-05
4.40961e-05
4.40952e-05
4.40944e-05
4.40926e-05
4.40921e-05
4.40918e-05
4.40917e-05
4.40919e-05
4.40923e-05
4.40928e-05
4.40936e-05
4.40944e-05
4.40952e-05
4.40958e-05
4.40964e-05
4.40967e-05
4.40968e-05
4.40967e-05
4.40962e-05
4.40955e-05
4.40948e-05
4.4094e-05
4.40932e-05
4.40915e-05
4.4091e-05
4.40907e-05
4.40906e-05
4.40907e-05
4.40911e-05
4.40916e-05
4.40923e-05
4.4093e-05
4.40938e-05
4.40944e-05
4.40949e-05
4.40953e-05
4.40954e-05
4.40953e-05
4.40949e-05
4.40943e-05
4.40936e-05
4.40928e-05
4.40921e-05
4.40906e-05
4.40901e-05
4.40898e-05
4.40896e-05
4.40897e-05
4.409e-05
4.40904e-05
4.40911e-05
4.40917e-05
4.40925e-05
4.40931e-05
4.40936e-05
4.4094e-05
4.40941e-05
4.40941e-05
4.40937e-05
4.40932e-05
4.40926e-05
4.40918e-05
4.40912e-05
4.40898e-05
4.40893e-05
4.4089e-05
4.40888e-05
4.40889e-05
4.40891e-05
4.40895e-05
4.40901e-05
4.40907e-05
4.40914e-05
4.4092e-05
4.40926e-05
4.40929e-05
4.40931e-05
4.40931e-05
4.40928e-05
4.40923e-05
4.40917e-05
4.4091e-05
4.40904e-05
4.40891e-05
4.40886e-05
4.40883e-05
4.40881e-05
4.40881e-05
4.40883e-05
4.40887e-05
4.40893e-05
4.40898e-05
4.40905e-05
4.40911e-05
4.40916e-05
4.4092e-05
4.40922e-05
4.40922e-05
4.40919e-05
4.40915e-05
4.40909e-05
4.40903e-05
4.40897e-05
4.40886e-05
4.40881e-05
4.40878e-05
4.40876e-05
4.40876e-05
4.40877e-05
4.4088e-05
4.40886e-05
4.40891e-05
4.40898e-05
4.40904e-05
4.40909e-05
4.40913e-05
4.40915e-05
4.40915e-05
4.40912e-05
4.40909e-05
4.40903e-05
4.40897e-05
4.40892e-05
4.40881e-05
4.40877e-05
4.40873e-05
4.40871e-05
4.40871e-05
4.40872e-05
4.40875e-05
4.4088e-05
4.40885e-05
4.40892e-05
4.40897e-05
4.40903e-05
4.40906e-05
4.40909e-05
4.40909e-05
4.40907e-05
4.40903e-05
4.40898e-05
4.40892e-05
4.40887e-05
4.40878e-05
4.40874e-05
4.4087e-05
4.40868e-05
4.40868e-05
4.40869e-05
4.40871e-05
4.40877e-05
4.40881e-05
4.40888e-05
4.40893e-05
4.40899e-05
4.40902e-05
4.40905e-05
4.40905e-05
4.40903e-05
4.409e-05
4.40895e-05
4.40889e-05
4.40884e-05
4.40877e-05
4.40873e-05
4.40869e-05
4.40866e-05
4.40866e-05
4.40867e-05
4.4087e-05
4.40875e-05
4.4088e-05
4.40886e-05
4.40891e-05
4.40897e-05
4.409e-05
4.40903e-05
4.40903e-05
4.40901e-05
4.40898e-05
4.40893e-05
4.40887e-05
4.40883e-05
4.41161e-05
4.41201e-05
4.41147e-05
4.41139e-05
4.41201e-05
4.41152e-05
4.41146e-05
4.41231e-05
4.41171e-05
4.41255e-05
4.41185e-05
4.41273e-05
4.41196e-05
4.41278e-05
4.41295e-05
4.41193e-05
4.41254e-05
4.41179e-05
4.41163e-05
4.41221e-05
2.8317e-05
2.59482e-05
2.54489e-05
2.68914e-05
2.98573e-05
3.36665e-05
3.76234e-05
4.12773e-05
4.43819e-05
4.67785e-05
4.83309e-05
4.89682e-05
4.87402e-05
4.78031e-05
4.6315e-05
4.43498e-05
4.19403e-05
3.90074e-05
3.54954e-05
3.16414e-05
3.12836e-05
3.46791e-05
3.87469e-05
4.26314e-05
4.57598e-05
4.7985e-05
4.94597e-05
5.03788e-05
5.0745e-05
5.02016e-05
4.8386e-05
4.54976e-05
4.2231e-05
3.91961e-05
3.65559e-05
3.42305e-05
3.20179e-05
2.99925e-05
2.87251e-05
2.8956e-05
4.39445e-05
4.51784e-05
4.64896e-05
4.75789e-05
4.83255e-05
4.87332e-05
4.89347e-05
4.902e-05
4.85986e-05
4.66585e-05
4.31192e-05
3.92987e-05
3.67096e-05