/*--------------------------------*- C++ -*----------------------------------*\
| =========                 |                                                 |
| \\      /  F ield         | OpenFOAM: The Open Source CFD Toolbox           |
|  \\    /   O peration     | Version:  2.4.0                                 |
|   \\  /    A nd           | Web:      www.OpenFOAM.org                      |
|    \\/     M anipulation  |                                                 |
\*---------------------------------------------------------------------------*/
FoamFile
{
    version     2.0;
    format      ascii;
    class       volScalarField;
    location    "130";
    object      nut;
}
// * * * * * * * * * * * * * * * * * * * * * * * * * * * * * * * * * * * * * //

dimensions      [0 2 -1 0 0 0 0];

internalField   nonuniform List<scalar> 
283312
(
3.25671e-06
2.96861e-06
2.76761e-06
2.71329e-06
2.8255e-06
3.079e-06
3.41616e-06
3.7754e-06
4.11145e-06
4.39192e-06
4.59221e-06
4.69916e-06
4.71661e-06
4.66226e-06
4.55262e-06
4.40068e-06
4.21968e-06
4.01339e-06
3.77445e-06
3.49685e-06
3.20217e-06
3.35324e-06
3.62541e-06
3.96714e-06
4.30866e-06
4.5976e-06
4.8146e-06
4.96165e-06
5.0329e-06
4.98139e-06
4.75408e-06
4.3766e-06
3.95815e-06
3.60692e-06
3.36669e-06
3.23074e-06
3.16409e-06
3.1199e-06
3.07778e-06
3.06229e-06
4.72795e-06
4.64896e-06
4.69085e-06
4.78431e-06
4.87569e-06
4.9385e-06
4.97221e-06
4.98555e-06
4.92697e-06
4.63623e-06
4.08543e-06
3.49715e-06
3.11367e-06
3.0569e-06
3.35166e-06
3.90291e-06
4.49798e-06
4.89179e-06
4.95495e-06
4.80208e-06
4.57887e-06
4.67828e-06
4.75948e-06
4.81261e-06
4.8401e-06
4.8525e-06
4.86066e-06
4.86836e-06
4.82705e-06
4.49591e-06
3.96991e-06
3.55187e-06
3.29594e-06
3.12529e-06
3.07218e-06
3.24764e-06
3.60955e-06
3.98751e-06
4.25655e-06
4.42845e-06
4.67216e-06
4.73521e-06
4.76873e-06
4.78345e-06
4.79019e-06
4.79487e-06
4.80146e-06
4.81007e-06
4.7694e-06
4.3613e-06
4.01799e-06
3.99625e-06
4.00482e-06
3.95493e-06
3.95459e-06
3.99e-06
4.08951e-06
4.24232e-06
4.40902e-06
4.55607e-06
4.71785e-06
4.74024e-06
4.7483e-06
4.75024e-06
4.75178e-06
4.75488e-06
4.76147e-06
4.77114e-06
4.76138e-06
4.48335e-06
4.68316e-06
5.45339e-06
5.80513e-06
5.40104e-06
4.8185e-06
4.45161e-06
4.36883e-06
4.44978e-06
4.56873e-06
4.66152e-06
4.78836e-06
4.74831e-06
4.73342e-06
4.72899e-06
4.72977e-06
4.73305e-06
4.73941e-06
4.74867e-06
4.74671e-06
4.41644e-06
4.72231e-06
6.32158e-06
8.50788e-06
9.45227e-06
8.7498e-06
7.3933e-06
6.215e-06
5.4641e-06
5.06269e-06
4.86967e-06
4.76272e-06
4.72824e-06
4.71732e-06
4.71462e-06
4.71547e-06
4.71827e-06
4.72353e-06
4.73199e-06
4.7425e-06
4.19049e-06
3.71508e-06
4.2226e-06
5.88015e-06
7.6783e-06
8.19516e-06
7.46229e-06
6.37217e-06
5.53813e-06
5.06838e-06
4.84926e-06
4.71965e-06
4.70844e-06
4.70553e-06
4.70557e-06
4.70707e-06
4.70975e-06
4.71398e-06
4.72149e-06
4.729e-06
3.89123e-06
2.84198e-06
2.36377e-06
3.04471e-06
4.61795e-06
5.64572e-06
5.72605e-06
5.36808e-06
5.03107e-06
4.83773e-06
4.75147e-06
4.70138e-06
4.70026e-06
4.70013e-06
4.70062e-06
4.70172e-06
4.70376e-06
4.70695e-06
4.71332e-06
4.71822e-06
3.74791e-06
2.63467e-06
1.98509e-06
2.15165e-06
3.09994e-06
4.04718e-06
4.5433e-06
4.69615e-06
4.71711e-06
4.71044e-06
4.7042e-06
4.6957e-06
4.69662e-06
4.69704e-06
4.69763e-06
4.69854e-06
4.70013e-06
4.70247e-06
4.70755e-06
4.70982e-06
3.62854e-06
2.50669e-06
1.86111e-06
1.93265e-06
2.68328e-06
3.57323e-06
4.19154e-06
4.50483e-06
4.63336e-06
4.67834e-06
4.69204e-06
4.69404e-06
4.69504e-06
4.69542e-06
4.69584e-06
4.69645e-06
4.69757e-06
4.69931e-06
4.70323e-06
4.70451e-06
3.53296e-06
2.42521e-06
1.85804e-06
1.97772e-06
2.70457e-06
3.55948e-06
4.17125e-06
4.49245e-06
4.62763e-06
4.67548e-06
4.6901e-06
4.69307e-06
4.69402e-06
4.69438e-06
4.69473e-06
4.69519e-06
4.69596e-06
4.6972e-06
4.69992e-06
4.70015e-06
3.4779e-06
2.33492e-06
1.7602e-06
1.95627e-06
2.73933e-06
3.59914e-06
4.19611e-06
4.50386e-06
4.63143e-06
4.67596e-06
4.68944e-06
4.69257e-06
4.69346e-06
4.69377e-06
4.69403e-06
4.69435e-06
4.69484e-06
4.6957e-06
4.69752e-06
4.69913e-06
3.46155e-06
2.37909e-06
1.85879e-06
2.05722e-06
2.81029e-06
3.63777e-06
4.21417e-06
4.51126e-06
4.63385e-06
4.67635e-06
4.68913e-06
4.69235e-06
4.69312e-06
4.69339e-06
4.6936e-06
4.69383e-06
4.69416e-06
4.69475e-06
4.6959e-06
4.69728e-06
3.42096e-06
2.26154e-06
1.79073e-06
2.10184e-06
2.90142e-06
3.71342e-06
4.25692e-06
4.52999e-06
4.64051e-06
4.6782e-06
4.68938e-06
4.69252e-06
4.69298e-06
4.69316e-06
4.69331e-06
4.69347e-06
4.69366e-06
4.69391e-06
4.69434e-06
4.69408e-06
3.63932e-06
2.37656e-06
1.95817e-06
2.38253e-06
3.20314e-06
3.93717e-06
4.37895e-06
4.58236e-06
4.65907e-06
4.68376e-06
4.69073e-06
4.69285e-06
4.69293e-06
4.69301e-06
4.69311e-06
4.69324e-06
4.6934e-06
4.69358e-06
4.69383e-06
4.69373e-06
4.56893e-06
4.49723e-06
4.52938e-06
4.59239e-06
4.63566e-06
4.65566e-06
4.67309e-06
4.6847e-06
4.69015e-06
4.69211e-06
4.69269e-06
4.69279e-06
4.69283e-06
4.69289e-06
4.69297e-06
4.69306e-06
4.69317e-06
4.69329e-06
4.69343e-06
4.69364e-06
4.69052e-06
4.689e-06
4.68999e-06
4.69154e-06
4.69237e-06
4.69248e-06
4.6926e-06
4.69273e-06
4.69279e-06
4.69279e-06
4.69278e-06
4.69272e-06
4.69274e-06
4.69279e-06
4.69286e-06
4.69293e-06
4.69302e-06
4.69311e-06
4.69319e-06
4.69325e-06
4.69324e-06
4.69315e-06
4.69314e-06
4.69318e-06
4.69314e-06
4.69307e-06
4.69297e-06
4.69288e-06
4.6928e-06
4.69274e-06
4.69272e-06
4.69266e-06
4.69268e-06
4.69271e-06
4.69276e-06
4.69283e-06
4.6929e-06
4.69297e-06
4.69304e-06
4.6931e-06
4.6931e-06
4.69305e-06
4.693e-06
4.69299e-06
4.69298e-06
4.69294e-06
4.69287e-06
4.69279e-06
4.69272e-06
4.69268e-06
4.69265e-06
4.6926e-06
4.69262e-06
4.69265e-06
4.69269e-06
4.69274e-06
4.6928e-06
4.69285e-06
4.6929e-06
4.69294e-06
4.69295e-06
4.69293e-06
4.69291e-06
4.6929e-06
4.69287e-06
4.69283e-06
4.69278e-06
4.69272e-06
4.69267e-06
4.69263e-06
4.69261e-06
4.69255e-06
4.69256e-06
4.69259e-06
4.69262e-06
4.69266e-06
4.69271e-06
4.69276e-06
4.6928e-06
4.69284e-06
4.69285e-06
4.69283e-06
4.69281e-06
4.6928e-06
4.69278e-06
4.69275e-06
4.69271e-06
4.69266e-06
4.69261e-06
4.69258e-06
4.69256e-06
4.69251e-06
4.69252e-06
4.69253e-06
4.69256e-06
4.69259e-06
4.69263e-06
4.69267e-06
4.69271e-06
4.69274e-06
4.69275e-06
4.69275e-06
4.69274e-06
4.69273e-06
4.69271e-06
4.69269e-06
4.69265e-06
4.69261e-06
4.69257e-06
4.69254e-06
4.69252e-06
4.69247e-06
4.69247e-06
4.69248e-06
4.69251e-06
4.69253e-06
4.69257e-06
4.6926e-06
4.69264e-06
4.69266e-06
4.69268e-06
4.69268e-06
4.69267e-06
4.69266e-06
4.69265e-06
4.69263e-06
4.6926e-06
4.69256e-06
4.69253e-06
4.6925e-06
4.69248e-06
4.69243e-06
4.69243e-06
4.69244e-06
4.69246e-06
4.69248e-06
4.69251e-06
4.69254e-06
4.69257e-06
4.69259e-06
4.69261e-06
4.69261e-06
4.69261e-06
4.6926e-06
4.69259e-06
4.69257e-06
4.69255e-06
4.69251e-06
4.69248e-06
4.69246e-06
4.69244e-06
4.6924e-06
4.69239e-06
4.6924e-06
4.69241e-06
4.69243e-06
4.69246e-06
4.69248e-06
4.69251e-06
4.69253e-06
4.69254e-06
4.69255e-06
4.69255e-06
4.69255e-06
4.69254e-06
4.69252e-06
4.6925e-06
4.69247e-06
4.69245e-06
4.69242e-06
4.69241e-06
4.69236e-06
4.69236e-06
4.69236e-06
4.69237e-06
4.69239e-06
4.69241e-06
4.69243e-06
4.69245e-06
4.69247e-06
4.69249e-06
4.6925e-06
4.6925e-06
4.6925e-06
4.69249e-06
4.69248e-06
4.69246e-06
4.69244e-06
4.69241e-06
4.69239e-06
4.69237e-06
4.69233e-06
4.69233e-06
4.69233e-06
4.69234e-06
4.69235e-06
4.69237e-06
4.69239e-06
4.69241e-06
4.69242e-06
4.69244e-06
4.69245e-06
4.69245e-06
4.69245e-06
4.69245e-06
4.69244e-06
4.69242e-06
4.6924e-06
4.69238e-06
4.69236e-06
4.69234e-06
4.69231e-06
4.6923e-06
4.6923e-06
4.69231e-06
4.69232e-06
4.69233e-06
4.69235e-06
4.69236e-06
4.69238e-06
4.6924e-06
4.6924e-06
4.69241e-06
4.69241e-06
4.69241e-06
4.6924e-06
4.69239e-06
4.69237e-06
4.69235e-06
4.69233e-06
4.69232e-06
4.69228e-06
4.69227e-06
4.69227e-06
4.69228e-06
4.69229e-06
4.6923e-06
4.69231e-06
4.69233e-06
4.69234e-06
4.69236e-06
4.69237e-06
4.69237e-06
4.69238e-06
4.69237e-06
4.69237e-06
4.69235e-06
4.69234e-06
4.69232e-06
4.6923e-06
4.69229e-06
4.69226e-06
4.69225e-06
4.69225e-06
4.69225e-06
4.69226e-06
4.69227e-06
4.69228e-06
4.6923e-06
4.69231e-06
4.69232e-06
4.69233e-06
4.69234e-06
4.69234e-06
4.69234e-06
4.69234e-06
4.69233e-06
4.69231e-06
4.6923e-06
4.69228e-06
4.69227e-06
4.69224e-06
4.69223e-06
4.69223e-06
4.69223e-06
4.69224e-06
4.69224e-06
4.69225e-06
4.69227e-06
4.69228e-06
4.69229e-06
4.6923e-06
4.69231e-06
4.69231e-06
4.69231e-06
4.69231e-06
4.6923e-06
4.69229e-06
4.69228e-06
4.69226e-06
4.69225e-06
4.69222e-06
4.69221e-06
4.69221e-06
4.69221e-06
4.69221e-06
4.69222e-06
4.69223e-06
4.69224e-06
4.69226e-06
4.69227e-06
4.69228e-06
4.69228e-06
4.69229e-06
4.69229e-06
4.69229e-06
4.69228e-06
4.69227e-06
4.69226e-06
4.69224e-06
4.69223e-06
4.69221e-06
4.6922e-06
4.6922e-06
4.69219e-06
4.6922e-06
4.6922e-06
4.69221e-06
4.69222e-06
4.69223e-06
4.69225e-06
4.69226e-06
4.69226e-06
4.69227e-06
4.69227e-06
4.69227e-06
4.69226e-06
4.69225e-06
4.69224e-06
4.69223e-06
4.69222e-06
4.69219e-06
4.69219e-06
4.69218e-06
4.69218e-06
4.69218e-06
4.69219e-06
4.6922e-06
4.69221e-06
4.69222e-06
4.69223e-06
4.69224e-06
4.69224e-06
4.69225e-06
4.69225e-06
4.69225e-06
4.69224e-06
4.69224e-06
4.69223e-06
4.69221e-06
4.6922e-06
4.69218e-06
4.69218e-06
4.69217e-06
4.69217e-06
4.69217e-06
4.69218e-06
4.69218e-06
4.69219e-06
4.6922e-06
4.69221e-06
4.69222e-06
4.69223e-06
4.69224e-06
4.69224e-06
4.69224e-06
4.69223e-06
4.69222e-06
4.69221e-06
4.6922e-06
4.69219e-06
4.69218e-06
4.69217e-06
4.69216e-06
4.69216e-06
4.69216e-06
4.69217e-06
4.69217e-06
4.69218e-06
4.69219e-06
4.6922e-06
4.69221e-06
4.69222e-06
4.69222e-06
4.69223e-06
4.69223e-06
4.69222e-06
4.69221e-06
4.6922e-06
4.69219e-06
4.69218e-06
4.69217e-06
4.69216e-06
4.69216e-06
4.69216e-06
4.69216e-06
4.69216e-06
4.69216e-06
4.69217e-06
4.69218e-06
4.69219e-06
4.6922e-06
4.69221e-06
4.69222e-06
4.69222e-06
4.69222e-06
4.69222e-06
4.69221e-06
4.6922e-06
4.69219e-06
4.69218e-06
4.69218e-06
4.69217e-06
4.69217e-06
4.69216e-06
4.69216e-06
4.69217e-06
4.69217e-06
4.69218e-06
4.69219e-06
4.6922e-06
4.69221e-06
4.69222e-06
4.69222e-06
4.69223e-06
4.69223e-06
4.69222e-06
4.69221e-06
4.69221e-06
4.6922e-06
4.69219e-06
4.69438e-06
4.69471e-06
4.69432e-06
4.69426e-06
4.69475e-06
4.69438e-06
4.6943e-06
4.69492e-06
4.69446e-06
4.69504e-06
4.69449e-06
4.69511e-06
4.69452e-06
4.69511e-06
4.69525e-06
4.69449e-06
4.69496e-06
4.69442e-06
4.69431e-06
4.6948e-06
3.07362e-06
2.80903e-06
2.6538e-06
2.65678e-06
2.82378e-06
3.12003e-06
3.48167e-06
3.85066e-06
4.18589e-06
4.45749e-06
4.64177e-06
4.72628e-06
4.71659e-06
4.63283e-06
4.49428e-06
4.31274e-06
4.10278e-06
3.86876e-06
3.60528e-06
3.31191e-06
3.09379e-06
3.30933e-06
3.63097e-06
4.0001e-06
4.34926e-06
4.63327e-06
4.84155e-06
4.97958e-06
5.04082e-06
4.97188e-06
4.71406e-06
4.29648e-06
3.83751e-06
3.45106e-06
3.18121e-06
3.02142e-06
2.93751e-06
2.88941e-06
2.86563e-06
2.89413e-06
4.60302e-06
4.59891e-06
4.68073e-06
4.78982e-06
4.88366e-06
4.94363e-06
4.97477e-06
4.98651e-06
4.92153e-06
4.6028e-06
4.0018e-06
3.36015e-06
2.93007e-06
2.82653e-06
3.06117e-06
3.54118e-06
4.08118e-06
4.47479e-06
4.61002e-06
4.5718e-06
4.56344e-06
4.68107e-06
4.76744e-06
4.8198e-06
4.84537e-06
4.85675e-06
4.86462e-06
4.87239e-06
4.82809e-06
4.46003e-06
3.86734e-06
3.37999e-06
3.06674e-06
2.8621e-06
2.80402e-06
2.99331e-06
3.38642e-06
3.81507e-06
4.14678e-06
4.37545e-06
4.67611e-06
4.74236e-06
4.77535e-06
4.78912e-06
4.7954e-06
4.79996e-06
4.80666e-06
4.81542e-06
4.77225e-06
4.30228e-06
3.85882e-06
3.7239e-06
3.63587e-06
3.5375e-06
3.53841e-06
3.6436e-06
3.85799e-06
4.12043e-06
4.361e-06
4.5459e-06
4.72379e-06
4.74661e-06
4.75439e-06
4.7562e-06
4.75786e-06
4.76107e-06
4.76779e-06
4.77752e-06
4.76571e-06
4.40991e-06
4.478e-06
5.05539e-06
5.24101e-06
4.82955e-06
4.35489e-06
4.1485e-06
4.21138e-06
4.38729e-06
4.55299e-06
4.66319e-06
4.78314e-06
4.75087e-06
4.73878e-06
4.73534e-06
4.73646e-06
4.73984e-06
4.74625e-06
4.75552e-06
4.75155e-06
4.34812e-06
4.53264e-06
5.8686e-06
7.60735e-06
8.22314e-06
7.5893e-06
6.58417e-06
5.77473e-06
5.26549e-06
4.98518e-06
4.84421e-06
4.76115e-06
4.73262e-06
4.72363e-06
4.72155e-06
4.7226e-06
4.72546e-06
4.73074e-06
4.7392e-06
4.74944e-06
4.16161e-06
3.6536e-06
4.0575e-06
5.42424e-06
6.86776e-06
7.29092e-06
6.78554e-06
5.99836e-06
5.37157e-06
5.00588e-06
4.83095e-06
4.72425e-06
4.71504e-06
4.71273e-06
4.71294e-06
4.71447e-06
4.71716e-06
4.72137e-06
4.72887e-06
4.73621e-06
3.85773e-06
2.79474e-06
2.3039e-06
2.90919e-06
4.30619e-06
5.26441e-06
5.4406e-06
5.21641e-06
4.9686e-06
4.81859e-06
4.74986e-06
4.7085e-06
4.70766e-06
4.70762e-06
4.70814e-06
4.70926e-06
4.71131e-06
4.71448e-06
4.72085e-06
4.72554e-06
3.71216e-06
2.59241e-06
1.95254e-06
2.11525e-06
3.02873e-06
3.96363e-06
4.4862e-06
4.67111e-06
4.7116e-06
4.71352e-06
4.71037e-06
4.70343e-06
4.70425e-06
4.70467e-06
4.70526e-06
4.70616e-06
4.70775e-06
4.71006e-06
4.71515e-06
4.71718e-06
3.5909e-06
2.46792e-06
1.83808e-06
1.92958e-06
2.69335e-06
3.58866e-06
4.20744e-06
4.51833e-06
4.64408e-06
4.68723e-06
4.70007e-06
4.70184e-06
4.70272e-06
4.70309e-06
4.70351e-06
4.70412e-06
4.70524e-06
4.70697e-06
4.71089e-06
4.71196e-06
3.49362e-06
2.39109e-06
1.84235e-06
1.98546e-06
2.73427e-06
3.59588e-06
4.20095e-06
4.51235e-06
4.64064e-06
4.68507e-06
4.69835e-06
4.7009e-06
4.70174e-06
4.70208e-06
4.70243e-06
4.70289e-06
4.70365e-06
4.70489e-06
4.7076e-06
4.70766e-06
3.43813e-06
2.30054e-06
1.74518e-06
1.96725e-06
2.77279e-06
3.638e-06
4.22667e-06
4.52379e-06
4.64432e-06
4.68549e-06
4.69768e-06
4.70041e-06
4.7012e-06
4.70149e-06
4.70175e-06
4.70206e-06
4.70256e-06
4.70342e-06
4.70522e-06
4.70673e-06
3.42224e-06
2.34961e-06
1.84712e-06
2.06882e-06
2.84307e-06
3.67581e-06
4.24413e-06
4.53082e-06
4.64655e-06
4.68581e-06
4.69736e-06
4.70019e-06
4.70087e-06
4.70112e-06
4.70132e-06
4.70155e-06
4.70188e-06
4.70247e-06
4.70362e-06
4.70493e-06
3.38008e-06
2.22853e-06
1.77969e-06
2.11627e-06
2.93571e-06
3.75098e-06
4.28569e-06
4.54862e-06
4.65272e-06
4.68746e-06
4.69756e-06
4.70031e-06
4.70072e-06
4.70089e-06
4.70103e-06
4.7012e-06
4.70139e-06
4.70164e-06
4.70207e-06
4.70183e-06
3.60335e-06
2.33119e-06
1.94219e-06
2.40135e-06
3.24159e-06
3.9739e-06
4.40454e-06
4.59843e-06
4.66997e-06
4.69251e-06
4.69874e-06
4.70058e-06
4.70066e-06
4.70074e-06
4.70085e-06
4.70097e-06
4.70113e-06
4.70131e-06
4.70156e-06
4.70145e-06
4.57153e-06
4.50212e-06
4.53864e-06
4.60299e-06
4.64537e-06
4.66503e-06
4.6821e-06
4.69313e-06
4.69817e-06
4.69993e-06
4.70044e-06
4.70052e-06
4.70056e-06
4.70062e-06
4.7007e-06
4.7008e-06
4.7009e-06
4.70102e-06
4.70117e-06
4.70137e-06
4.69814e-06
4.69671e-06
4.69779e-06
4.69935e-06
4.70013e-06
4.70023e-06
4.70036e-06
4.70047e-06
4.70052e-06
4.70051e-06
4.7005e-06
4.70045e-06
4.70047e-06
4.70052e-06
4.70059e-06
4.70067e-06
4.70076e-06
4.70084e-06
4.70093e-06
4.70098e-06
4.70097e-06
4.70088e-06
4.70087e-06
4.7009e-06
4.70086e-06
4.70079e-06
4.70069e-06
4.7006e-06
4.70052e-06
4.70047e-06
4.70044e-06
4.70038e-06
4.70041e-06
4.70044e-06
4.7005e-06
4.70056e-06
4.70063e-06
4.7007e-06
4.70077e-06
4.70083e-06
4.70083e-06
4.70077e-06
4.70072e-06
4.70072e-06
4.70071e-06
4.70067e-06
4.70059e-06
4.70052e-06
4.70045e-06
4.7004e-06
4.70038e-06
4.70033e-06
4.70035e-06
4.70038e-06
4.70042e-06
4.70047e-06
4.70053e-06
4.70059e-06
4.70064e-06
4.70067e-06
4.70068e-06
4.70066e-06
4.70063e-06
4.70063e-06
4.7006e-06
4.70056e-06
4.7005e-06
4.70044e-06
4.70039e-06
4.70035e-06
4.70033e-06
4.70028e-06
4.7003e-06
4.70032e-06
4.70035e-06
4.7004e-06
4.70044e-06
4.70049e-06
4.70054e-06
4.70057e-06
4.70058e-06
4.70056e-06
4.70054e-06
4.70053e-06
4.70051e-06
4.70048e-06
4.70044e-06
4.70039e-06
4.70034e-06
4.70031e-06
4.70029e-06
4.70024e-06
4.70025e-06
4.70027e-06
4.70029e-06
4.70033e-06
4.70037e-06
4.70041e-06
4.70045e-06
4.70047e-06
4.70049e-06
4.70048e-06
4.70047e-06
4.70046e-06
4.70044e-06
4.70042e-06
4.70038e-06
4.70034e-06
4.7003e-06
4.70027e-06
4.70025e-06
4.7002e-06
4.7002e-06
4.70022e-06
4.70024e-06
4.70027e-06
4.7003e-06
4.70034e-06
4.70037e-06
4.7004e-06
4.70041e-06
4.70041e-06
4.7004e-06
4.70039e-06
4.70038e-06
4.70036e-06
4.70033e-06
4.70029e-06
4.70025e-06
4.70023e-06
4.70021e-06
4.70016e-06
4.70016e-06
4.70017e-06
4.70019e-06
4.70021e-06
4.70024e-06
4.70027e-06
4.7003e-06
4.70032e-06
4.70034e-06
4.70034e-06
4.70034e-06
4.70034e-06
4.70032e-06
4.7003e-06
4.70028e-06
4.70024e-06
4.70021e-06
4.70019e-06
4.70017e-06
4.70013e-06
4.70013e-06
4.70013e-06
4.70015e-06
4.70017e-06
4.70019e-06
4.70022e-06
4.70024e-06
4.70026e-06
4.70028e-06
4.70028e-06
4.70028e-06
4.70028e-06
4.70027e-06
4.70025e-06
4.70023e-06
4.7002e-06
4.70018e-06
4.70015e-06
4.70014e-06
4.7001e-06
4.70009e-06
4.7001e-06
4.70011e-06
4.70012e-06
4.70014e-06
4.70017e-06
4.70019e-06
4.70021e-06
4.70022e-06
4.70023e-06
4.70023e-06
4.70023e-06
4.70022e-06
4.70021e-06
4.70019e-06
4.70017e-06
4.70014e-06
4.70012e-06
4.7001e-06
4.70007e-06
4.70006e-06
4.70006e-06
4.70007e-06
4.70008e-06
4.7001e-06
4.70012e-06
4.70014e-06
4.70016e-06
4.70017e-06
4.70018e-06
4.70019e-06
4.70019e-06
4.70018e-06
4.70017e-06
4.70015e-06
4.70013e-06
4.70011e-06
4.70009e-06
4.70008e-06
4.70004e-06
4.70003e-06
4.70003e-06
4.70004e-06
4.70005e-06
4.70006e-06
4.70008e-06
4.7001e-06
4.70012e-06
4.70013e-06
4.70014e-06
4.70014e-06
4.70014e-06
4.70014e-06
4.70013e-06
4.70012e-06
4.7001e-06
4.70008e-06
4.70006e-06
4.70005e-06
4.70001e-06
4.70001e-06
4.70001e-06
4.70001e-06
4.70002e-06
4.70003e-06
4.70005e-06
4.70006e-06
4.70008e-06
4.70009e-06
4.7001e-06
4.70011e-06
4.70011e-06
4.70011e-06
4.7001e-06
4.70009e-06
4.70007e-06
4.70005e-06
4.70004e-06
4.70002e-06
4.69999e-06
4.69998e-06
4.69998e-06
4.69999e-06
4.69999e-06
4.7e-06
4.70002e-06
4.70003e-06
4.70004e-06
4.70006e-06
4.70007e-06
4.70007e-06
4.70008e-06
4.70007e-06
4.70007e-06
4.70006e-06
4.70004e-06
4.70003e-06
4.70001e-06
4.7e-06
4.69997e-06
4.69996e-06
4.69996e-06
4.69996e-06
4.69997e-06
4.69998e-06
4.69999e-06
4.7e-06
4.70001e-06
4.70003e-06
4.70004e-06
4.70004e-06
4.70005e-06
4.70005e-06
4.70004e-06
4.70003e-06
4.70002e-06
4.70001e-06
4.69999e-06
4.69998e-06
4.69995e-06
4.69995e-06
4.69994e-06
4.69994e-06
4.69995e-06
4.69996e-06
4.69997e-06
4.69998e-06
4.69999e-06
4.7e-06
4.70001e-06
4.70002e-06
4.70002e-06
4.70002e-06
4.70002e-06
4.70001e-06
4.7e-06
4.69999e-06
4.69998e-06
4.69996e-06
4.69994e-06
4.69993e-06
4.69993e-06
4.69993e-06
4.69993e-06
4.69994e-06
4.69995e-06
4.69996e-06
4.69997e-06
4.69998e-06
4.69999e-06
4.7e-06
4.7e-06
4.7e-06
4.7e-06
4.69999e-06
4.69998e-06
4.69997e-06
4.69996e-06
4.69995e-06
4.69993e-06
4.69992e-06
4.69992e-06
4.69991e-06
4.69992e-06
4.69992e-06
4.69993e-06
4.69994e-06
4.69995e-06
4.69996e-06
4.69997e-06
4.69998e-06
4.69998e-06
4.69998e-06
4.69998e-06
4.69998e-06
4.69997e-06
4.69996e-06
4.69995e-06
4.69994e-06
4.69992e-06
4.69991e-06
4.69991e-06
4.6999e-06
4.69991e-06
4.69991e-06
4.69992e-06
4.69993e-06
4.69994e-06
4.69995e-06
4.69996e-06
4.69996e-06
4.69997e-06
4.69997e-06
4.69997e-06
4.69996e-06
4.69996e-06
4.69995e-06
4.69994e-06
4.69993e-06
4.69991e-06
4.6999e-06
4.6999e-06
4.69989e-06
4.6999e-06
4.6999e-06
4.69991e-06
4.69991e-06
4.69992e-06
4.69993e-06
4.69994e-06
4.69995e-06
4.69996e-06
4.69996e-06
4.69996e-06
4.69995e-06
4.69995e-06
4.69994e-06
4.69993e-06
4.69992e-06
4.6999e-06
4.6999e-06
4.69989e-06
4.69989e-06
4.69989e-06
4.69989e-06
4.6999e-06
4.69991e-06
4.69992e-06
4.69993e-06
4.69994e-06
4.69994e-06
4.69995e-06
4.69995e-06
4.69995e-06
4.69995e-06
4.69994e-06
4.69993e-06
4.69992e-06
4.69991e-06
4.69991e-06
4.6999e-06
4.6999e-06
4.6999e-06
4.6999e-06
4.6999e-06
4.69991e-06
4.69991e-06
4.69992e-06
4.69993e-06
4.69994e-06
4.69995e-06
4.69996e-06
4.69996e-06
4.69996e-06
4.69995e-06
4.69995e-06
4.69994e-06
4.69993e-06
4.69992e-06
4.70203e-06
4.70233e-06
4.70197e-06
4.70193e-06
4.70237e-06
4.70203e-06
4.70197e-06
4.70254e-06
4.70211e-06
4.70265e-06
4.70214e-06
4.70271e-06
4.70217e-06
4.70272e-06
4.70283e-06
4.70213e-06
4.70256e-06
4.70207e-06
4.70198e-06
4.70242e-06
2.89097e-06
2.65654e-06
2.55151e-06
2.61248e-06
2.832e-06
3.16602e-06
3.54821e-06
3.9242e-06
4.25668e-06
4.51804e-06
4.68516e-06
4.74615e-06
4.70826e-06
4.5941e-06
4.42514e-06
4.21313e-06
3.97393e-06
3.71277e-06
3.4269e-06
3.12214e-06
3.00116e-06
3.27788e-06
3.64389e-06
4.03584e-06
4.38959e-06
4.66814e-06
4.86745e-06
4.99642e-06
5.04757e-06
4.96049e-06
4.67091e-06
4.21243e-06
3.71334e-06
3.29304e-06
2.99586e-06
2.81452e-06
2.71628e-06
2.66818e-06
2.66702e-06
2.74252e-06
4.49335e-06
4.55748e-06
4.67464e-06
4.79667e-06
4.89165e-06
4.94855e-06
4.97726e-06
4.98755e-06
4.91594e-06
4.56807e-06
3.91653e-06
3.2237e-06
2.75102e-06
2.60532e-06
2.78531e-06
3.20095e-06
3.69304e-06
4.09091e-06
4.29679e-06
4.36619e-06
4.55321e-06
4.68605e-06
4.77597e-06
4.82699e-06
4.85064e-06
4.86107e-06
4.86874e-06
4.87661e-06
4.82924e-06
4.423e-06
3.76463e-06
3.21307e-06
2.84987e-06
2.61827e-06
2.55941e-06
2.76361e-06
3.18659e-06
3.66276e-06
4.05244e-06
4.33258e-06
4.68176e-06
4.74999e-06
4.78209e-06
4.79488e-06
4.80077e-06
4.80523e-06
4.81205e-06
4.82096e-06
4.77542e-06
4.24196e-06
3.70184e-06
3.46456e-06
3.29504e-06
3.16104e-06
3.17017e-06
3.34187e-06
3.65954e-06
4.01882e-06
4.32372e-06
4.54062e-06
4.73037e-06
4.75322e-06
4.76065e-06
4.76234e-06
4.76412e-06
4.76744e-06
4.77429e-06
4.78408e-06
4.77025e-06
4.33372e-06
4.27418e-06
4.67541e-06
4.72187e-06
4.31484e-06
3.94447e-06
3.88447e-06
4.07769e-06
4.33715e-06
4.54274e-06
4.66691e-06
4.77942e-06
4.75407e-06
4.74448e-06
4.74191e-06
4.74334e-06
4.74679e-06
4.75326e-06
4.76252e-06
4.75653e-06
4.27639e-06
4.34224e-06
5.43294e-06
6.77702e-06
7.13071e-06
6.57872e-06
5.88187e-06
5.39016e-06
5.09133e-06
4.91766e-06
4.82271e-06
4.76072e-06
4.73749e-06
4.73022e-06
4.72867e-06
4.7299e-06
4.73281e-06
4.73811e-06
4.74657e-06
4.75652e-06
4.1301e-06
3.58783e-06
3.88938e-06
4.98772e-06
6.12339e-06
6.48174e-06
6.18438e-06
5.66591e-06
5.22367e-06
4.95108e-06
4.81567e-06
4.72935e-06
4.7219e-06
4.72012e-06
4.72048e-06
4.72204e-06
4.72472e-06
4.72891e-06
4.73641e-06
4.74356e-06
3.82242e-06
2.74665e-06
2.24337e-06
2.77279e-06
4.00941e-06
4.91348e-06
5.18215e-06
5.08067e-06
4.91367e-06
4.80261e-06
4.74949e-06
4.71584e-06
4.71524e-06
4.71528e-06
4.71583e-06
4.71696e-06
4.71901e-06
4.72216e-06
4.72853e-06
4.733e-06
3.67472e-06
2.54995e-06
1.92033e-06
2.07843e-06
2.96018e-06
3.88706e-06
4.43591e-06
4.65024e-06
4.70804e-06
4.71742e-06
4.7169e-06
4.7113e-06
4.71204e-06
4.71245e-06
4.71304e-06
4.71394e-06
4.71553e-06
4.71782e-06
4.7229e-06
4.72469e-06
3.55169e-06
2.42925e-06
1.81568e-06
1.92719e-06
2.70474e-06
3.60593e-06
4.22466e-06
4.53241e-06
4.65501e-06
4.69626e-06
4.70824e-06
4.70978e-06
4.71056e-06
4.71091e-06
4.71133e-06
4.71195e-06
4.71307e-06
4.71479e-06
4.7187e-06
4.71954e-06
3.45278e-06
2.35752e-06
1.82741e-06
1.99417e-06
2.76512e-06
3.63301e-06
4.23076e-06
4.53209e-06
4.65356e-06
4.69468e-06
4.70669e-06
4.70887e-06
4.70962e-06
4.70994e-06
4.71028e-06
4.71074e-06
4.71151e-06
4.71273e-06
4.71544e-06
4.71531e-06
3.39696e-06
2.26669e-06
1.73097e-06
1.97924e-06
2.80731e-06
3.67737e-06
4.25714e-06
4.54348e-06
4.65708e-06
4.69503e-06
4.70603e-06
4.70839e-06
4.70909e-06
4.70936e-06
4.70962e-06
4.70993e-06
4.71043e-06
4.71129e-06
4.71309e-06
4.71449e-06
3.38165e-06
2.32088e-06
1.83616e-06
2.08134e-06
2.87688e-06
3.71433e-06
4.27399e-06
4.55014e-06
4.65913e-06
4.69529e-06
4.7057e-06
4.70817e-06
4.70877e-06
4.709e-06
4.7092e-06
4.70944e-06
4.70976e-06
4.71035e-06
4.7115e-06
4.71274e-06
3.33786e-06
2.19618e-06
1.76948e-06
2.13171e-06
2.97101e-06
3.78895e-06
4.31432e-06
4.56702e-06
4.66484e-06
4.69677e-06
4.70584e-06
4.70826e-06
4.70862e-06
4.70877e-06
4.70892e-06
4.70908e-06
4.70928e-06
4.70953e-06
4.70996e-06
4.70973e-06
3.56589e-06
2.28563e-06
1.92733e-06
2.42176e-06
3.28114e-06
4.01078e-06
4.42985e-06
4.61428e-06
4.68082e-06
4.70133e-06
4.70688e-06
4.70847e-06
4.70854e-06
4.70862e-06
4.70873e-06
4.70886e-06
4.70902e-06
4.7092e-06
4.70945e-06
4.70933e-06
4.57408e-06
4.50726e-06
4.54824e-06
4.6138e-06
4.6552e-06
4.67455e-06
4.69124e-06
4.70169e-06
4.70632e-06
4.7079e-06
4.70834e-06
4.7084e-06
4.70844e-06
4.7085e-06
4.70859e-06
4.70868e-06
4.70879e-06
4.70891e-06
4.70906e-06
4.70926e-06
4.70591e-06
4.70457e-06
4.70575e-06
4.70732e-06
4.70806e-06
4.70815e-06
4.70827e-06
4.70837e-06
4.7084e-06
4.70839e-06
4.70839e-06
4.70833e-06
4.70836e-06
4.70841e-06
4.70848e-06
4.70856e-06
4.70865e-06
4.70873e-06
4.70882e-06
4.70887e-06
4.70885e-06
4.70876e-06
4.70875e-06
4.70879e-06
4.70874e-06
4.70866e-06
4.70857e-06
4.70848e-06
4.7084e-06
4.70835e-06
4.70832e-06
4.70827e-06
4.70829e-06
4.70833e-06
4.70839e-06
4.70845e-06
4.70852e-06
4.70859e-06
4.70866e-06
4.70872e-06
4.70872e-06
4.70866e-06
4.70861e-06
4.7086e-06
4.70859e-06
4.70855e-06
4.70847e-06
4.70839e-06
4.70833e-06
4.70829e-06
4.70827e-06
4.70822e-06
4.70824e-06
4.70827e-06
4.70831e-06
4.70836e-06
4.70842e-06
4.70848e-06
4.70853e-06
4.70856e-06
4.70857e-06
4.70854e-06
4.70852e-06
4.70851e-06
4.70848e-06
4.70844e-06
4.70839e-06
4.70833e-06
4.70828e-06
4.70824e-06
4.70822e-06
4.70817e-06
4.70818e-06
4.70821e-06
4.70824e-06
4.70829e-06
4.70834e-06
4.70838e-06
4.70843e-06
4.70846e-06
4.70847e-06
4.70845e-06
4.70843e-06
4.70842e-06
4.7084e-06
4.70837e-06
4.70832e-06
4.70827e-06
4.70823e-06
4.70819e-06
4.70817e-06
4.70813e-06
4.70814e-06
4.70816e-06
4.70818e-06
4.70822e-06
4.70826e-06
4.7083e-06
4.70834e-06
4.70836e-06
4.70838e-06
4.70837e-06
4.70836e-06
4.70835e-06
4.70833e-06
4.7083e-06
4.70826e-06
4.70822e-06
4.70818e-06
4.70815e-06
4.70813e-06
4.70809e-06
4.70809e-06
4.70811e-06
4.70813e-06
4.70816e-06
4.70819e-06
4.70823e-06
4.70826e-06
4.70829e-06
4.7083e-06
4.7083e-06
4.70829e-06
4.70828e-06
4.70827e-06
4.70824e-06
4.70821e-06
4.70817e-06
4.70814e-06
4.70811e-06
4.7081e-06
4.70805e-06
4.70805e-06
4.70806e-06
4.70808e-06
4.70811e-06
4.70813e-06
4.70816e-06
4.70819e-06
4.70821e-06
4.70823e-06
4.70823e-06
4.70823e-06
4.70822e-06
4.70821e-06
4.70819e-06
4.70816e-06
4.70813e-06
4.7081e-06
4.70808e-06
4.70806e-06
4.70802e-06
4.70802e-06
4.70802e-06
4.70804e-06
4.70806e-06
4.70808e-06
4.70811e-06
4.70813e-06
4.70815e-06
4.70817e-06
4.70817e-06
4.70817e-06
4.70817e-06
4.70816e-06
4.70814e-06
4.70812e-06
4.70809e-06
4.70806e-06
4.70804e-06
4.70802e-06
4.70798e-06
4.70798e-06
4.70799e-06
4.708e-06
4.70801e-06
4.70803e-06
4.70806e-06
4.70808e-06
4.7081e-06
4.70811e-06
4.70812e-06
4.70812e-06
4.70812e-06
4.70811e-06
4.7081e-06
4.70808e-06
4.70805e-06
4.70803e-06
4.70801e-06
4.70799e-06
4.70795e-06
4.70795e-06
4.70795e-06
4.70796e-06
4.70797e-06
4.70799e-06
4.70801e-06
4.70803e-06
4.70805e-06
4.70806e-06
4.70807e-06
4.70807e-06
4.70807e-06
4.70807e-06
4.70806e-06
4.70804e-06
4.70802e-06
4.708e-06
4.70798e-06
4.70796e-06
4.70793e-06
4.70792e-06
4.70792e-06
4.70793e-06
4.70794e-06
4.70796e-06
4.70797e-06
4.70799e-06
4.70801e-06
4.70802e-06
4.70803e-06
4.70803e-06
4.70803e-06
4.70803e-06
4.70802e-06
4.708e-06
4.70799e-06
4.70797e-06
4.70795e-06
4.70794e-06
4.7079e-06
4.7079e-06
4.7079e-06
4.7079e-06
4.70791e-06
4.70792e-06
4.70794e-06
4.70795e-06
4.70797e-06
4.70798e-06
4.70799e-06
4.708e-06
4.708e-06
4.70799e-06
4.70799e-06
4.70797e-06
4.70796e-06
4.70794e-06
4.70793e-06
4.70791e-06
4.70788e-06
4.70787e-06
4.70787e-06
4.70788e-06
4.70788e-06
4.70789e-06
4.70791e-06
4.70792e-06
4.70793e-06
4.70795e-06
4.70796e-06
4.70796e-06
4.70797e-06
4.70796e-06
4.70796e-06
4.70795e-06
4.70793e-06
4.70792e-06
4.7079e-06
4.70789e-06
4.70786e-06
4.70785e-06
4.70785e-06
4.70785e-06
4.70786e-06
4.70787e-06
4.70788e-06
4.70789e-06
4.70791e-06
4.70792e-06
4.70793e-06
4.70793e-06
4.70794e-06
4.70794e-06
4.70793e-06
4.70792e-06
4.70791e-06
4.7079e-06
4.70788e-06
4.70787e-06
4.70784e-06
4.70784e-06
4.70783e-06
4.70783e-06
4.70784e-06
4.70785e-06
4.70786e-06
4.70787e-06
4.70788e-06
4.70789e-06
4.7079e-06
4.70791e-06
4.70791e-06
4.70791e-06
4.70791e-06
4.7079e-06
4.70789e-06
4.70788e-06
4.70786e-06
4.70785e-06
4.70783e-06
4.70782e-06
4.70782e-06
4.70782e-06
4.70782e-06
4.70783e-06
4.70784e-06
4.70785e-06
4.70786e-06
4.70787e-06
4.70788e-06
4.70789e-06
4.70789e-06
4.70789e-06
4.70789e-06
4.70788e-06
4.70787e-06
4.70786e-06
4.70785e-06
4.70784e-06
4.70782e-06
4.70781e-06
4.7078e-06
4.7078e-06
4.70781e-06
4.70781e-06
4.70782e-06
4.70783e-06
4.70784e-06
4.70785e-06
4.70786e-06
4.70787e-06
4.70787e-06
4.70787e-06
4.70787e-06
4.70787e-06
4.70786e-06
4.70785e-06
4.70784e-06
4.70782e-06
4.70781e-06
4.7078e-06
4.70779e-06
4.70779e-06
4.7078e-06
4.7078e-06
4.70781e-06
4.70782e-06
4.70783e-06
4.70784e-06
4.70785e-06
4.70785e-06
4.70786e-06
4.70786e-06
4.70786e-06
4.70785e-06
4.70785e-06
4.70784e-06
4.70783e-06
4.70782e-06
4.7078e-06
4.70779e-06
4.70779e-06
4.70778e-06
4.70779e-06
4.70779e-06
4.7078e-06
4.70781e-06
4.70781e-06
4.70783e-06
4.70783e-06
4.70784e-06
4.70785e-06
4.70785e-06
4.70785e-06
4.70784e-06
4.70784e-06
4.70783e-06
4.70782e-06
4.70781e-06
4.70779e-06
4.70779e-06
4.70778e-06
4.70778e-06
4.70778e-06
4.70778e-06
4.70779e-06
4.7078e-06
4.70781e-06
4.70782e-06
4.70783e-06
4.70783e-06
4.70784e-06
4.70784e-06
4.70784e-06
4.70784e-06
4.70783e-06
4.70782e-06
4.70781e-06
4.7078e-06
4.7078e-06
4.70779e-06
4.70779e-06
4.70779e-06
4.70779e-06
4.70779e-06
4.7078e-06
4.7078e-06
4.70781e-06
4.70782e-06
4.70783e-06
4.70784e-06
4.70784e-06
4.70785e-06
4.70785e-06
4.70784e-06
4.70784e-06
4.70783e-06
4.70782e-06
4.70781e-06
4.70984e-06
4.71011e-06
4.70978e-06
4.70975e-06
4.71016e-06
4.70984e-06
4.7098e-06
4.71032e-06
4.70992e-06
4.71042e-06
4.70995e-06
4.71048e-06
4.70997e-06
4.71048e-06
4.71058e-06
4.70993e-06
4.71033e-06
4.70987e-06
4.7098e-06
4.7102e-06
2.71187e-06
2.51385e-06
2.46262e-06
2.58148e-06
2.85071e-06
3.2178e-06
3.61677e-06
3.99694e-06
4.32467e-06
4.57428e-06
4.72296e-06
4.75919e-06
4.6919e-06
4.54631e-06
4.34567e-06
4.10265e-06
3.83434e-06
3.54718e-06
3.2417e-06
2.93044e-06
2.92531e-06
3.25947e-06
3.66472e-06
4.07498e-06
4.43031e-06
4.70239e-06
4.89225e-06
5.01216e-06
5.05315e-06
4.94724e-06
4.62478e-06
4.12504e-06
3.5868e-06
3.13458e-06
2.81275e-06
2.61251e-06
2.50318e-06
2.459e-06
2.48433e-06
2.60907e-06
4.40007e-06
4.52525e-06
4.6728e-06
4.80492e-06
4.89975e-06
4.9534e-06
4.97979e-06
4.98876e-06
4.91027e-06
4.53222e-06
3.83029e-06
3.08913e-06
2.5783e-06