/*--------------------------------*- C++ -*----------------------------------*\
| =========                 |                                                 |
| \\      /  F ield         | OpenFOAM: The Open Source CFD Toolbox           |
|  \\    /   O peration     | Version:  2.4.0                                 |
|   \\  /    A nd           | Web:      www.OpenFOAM.org                      |
|    \\/     M anipulation  |                                                 |
\*---------------------------------------------------------------------------*/
FoamFile
{
    version     2.0;
    format      ascii;
    class       volScalarField;
    location    "130";
    object      p;
}
// * * * * * * * * * * * * * * * * * * * * * * * * * * * * * * * * * * * * * //

dimensions      [0 2 -2 0 0 0 0];

internalField   nonuniform List<scalar> 
283312
(
-0.00622008
-0.00628757
-0.00653532
-0.00688174
-0.0072373
-0.00753262
-0.00776121
-0.00791894
-0.0080395
-0.00814717
-0.00826247
-0.00837197
-0.00844331
-0.00842032
-0.00826869
-0.00799565
-0.0076125
-0.00715614
-0.00670891
-0.00637
0.00213777
0.00162836
0.00119808
0.0009283
0.000830837
0.000899364
0.00104556
0.00118973
0.00130367
0.00139519
0.00146703
0.00155076
0.00168358
0.00188732
0.00217455
0.00254441
0.00285871
0.0030062
0.0029235
0.00261024
-0.00229827
-0.00214458
-0.00191962
-0.00167837
-0.00148602
-0.00138938
-0.00137159
-0.00137816
-0.00142707
-0.00146695
-0.00149289
-0.00146558
-0.00138885
-0.00128646
-0.00124177
-0.00135377
-0.00160152
-0.0019016
-0.00216682
-0.00231054
0.00146134
0.001637
0.0017826
0.00189862
0.00198187
0.0020507
0.00205776
0.00206515
0.00203362
0.00204892
0.00207426
0.00212863
0.00215763
0.00211025
0.00197518
0.00172626
0.00147061
0.00128497
0.00123166
0.00130888
-0.000742061
-0.000542861
-0.0004262
-0.000348376
-0.000345883
-0.000333754
-0.000345897
-0.000331992
-0.000360307
-0.000330092
-0.00032591
-0.000373989
-0.000557044
-0.000889335
-0.00132777
-0.0016749
-0.00176506
-0.00161948
-0.00132986
-0.0010103
0.00119123
0.00130116
0.00135926
0.00140502
0.00141859
0.0014259
0.00139153
0.00137911
0.00131723
0.00133723
0.00130128
0.00118724
0.000897679
0.000516243
0.000235423
0.000161066
0.00029253
0.000539732
0.000808117
0.00103355
-0.00015106
-0.000111372
-0.000104392
-9.86966e-05
-0.000110339
-8.57771e-05
-8.65067e-05
-5.81033e-05
-8.73672e-05
-5.20208e-05
-0.000140136
-0.00038355
-0.000803854
-0.00124153
-0.0013985
-0.00125449
-0.000942282
-0.000628239
-0.000384806
-0.000230922
0.000755177
0.000804294
0.000827758
0.000852584
0.000840811
0.000837042
0.00079964
0.000779201
0.00071213
0.000707535
0.000568439
0.000277212
-0.000124244
-0.000334395
-0.000302947
-8.28461e-05
0.00019752
0.000423451
0.000585842
0.000689867
-2.16178e-06
-5.45872e-08
-1.08128e-05
-1.24575e-05
-1.41063e-05
7.41469e-06
9.00369e-06
2.82878e-05
1.0062e-06
6.56168e-06
-0.000179226
-0.000574095
-0.000973566
-0.00106605
-0.000865816
-0.000582056
-0.000319557
-0.000154945
-5.79992e-05
-1.49458e-05
0.000436964
0.000461493
0.000472094
0.000482388
0.000469528
0.000461007
0.000430722
0.000408179
0.000355656
0.000339553
0.000164234
-0.000200896
-0.000451731
-0.000443265
-0.000218175
4.08775e-06
0.000188126
0.000294032
0.000365389
0.000407467
4.23752e-05
4.06181e-05
3.18044e-05
3.36213e-05
3.27468e-05
4.75458e-05
4.77398e-05
6.35378e-05
4.66105e-05
7.14578e-05
-0.000102927
-0.000529663
-0.000712086
-0.000633574
-0.000394096
-0.000210074
-7.17783e-05
-7.85609e-06
2.98716e-05
4.11968e-05
0.000248697
0.000260373
0.000263986
0.000266964
0.000255742
0.000246908
0.000223425
0.000205629
0.000170853
0.000189705
5.50996e-05
-0.000226025
-0.000332277
-0.000228353
-4.93436e-05
6.49723e-05
0.000151105
0.000188174
0.000218711
0.00023487
5.39186e-05
5.40754e-05
4.96076e-05
5.30165e-05
5.17514e-05
6.28924e-05
6.24465e-05
8.56217e-05
8.23141e-05
0.000187882
7.46316e-05
-0.000272295
-0.000357487
-0.000293313
-0.000148662
-6.67592e-05
1.69391e-06
2.63967e-05
4.68671e-05
5.18721e-05
0.000144398
0.000149524
0.000149563
0.000149716
0.000139854
0.000132013
0.000112937
0.000100618
8.03279e-05
0.000137152
9.70133e-05
-5.21136e-05
-0.000110164
-5.55341e-05
3.13138e-05
6.85596e-05
0.000106495
0.000116646
0.000131754
0.000137645
5.20944e-05
5.39464e-05
5.24698e-05
5.59812e-05
5.46876e-05
6.36038e-05
6.38644e-05
9.21909e-05
0.00010418
0.000278565
0.000265905
-5.19643e-05
-0.000138952
-0.000141743
-7.73596e-05
-3.68415e-05
9.3571e-06
2.54699e-05
4.28849e-05
4.80261e-05
8.84281e-05
9.06083e-05
8.92942e-05
8.84181e-05
7.99815e-05
7.30743e-05
5.68071e-05
4.61687e-05
2.84606e-05
8.5462e-05
0.000195659
3.70471e-05
-2.01057e-05
-2.04327e-05
2.04615e-05
3.39643e-05
6.25913e-05
6.95373e-05
8.13093e-05
8.44092e-05
4.58086e-05
4.81111e-05
4.80192e-05
5.08425e-05
4.96663e-05
5.56301e-05
5.5439e-05
7.17582e-05
6.7969e-05
0.000106432
6.60803e-05
-3.12996e-05
-4.08066e-05
-5.5731e-05
-2.20255e-05
-1.30331e-05
1.36945e-05
2.25984e-05
3.64821e-05
4.11874e-05
5.91048e-05
5.98675e-05
5.83195e-05
5.71899e-05
5.04045e-05
4.45434e-05
3.18398e-05
2.14685e-05
9.61285e-06
8.9987e-06
4.08674e-05
1.0051e-05
1.88722e-05
1.63642e-05
3.60279e-05
3.47636e-05
4.8676e-05
4.88284e-05
5.58223e-05
5.67448e-05
3.91839e-05
4.10975e-05
4.14003e-05
4.32665e-05
4.21187e-05
4.55697e-05
4.55453e-05
5.35998e-05
5.12353e-05
5.78949e-05
3.33957e-05
-1.56748e-05
-1.71261e-05
-3.09404e-05
-8.96396e-06
-5.21132e-06
1.3922e-05
2.00707e-05
3.10857e-05
3.49295e-05
4.34917e-05
4.36341e-05
4.2332e-05
4.12362e-05
3.60477e-05
3.13454e-05
2.1916e-05
1.30527e-05
4.3831e-06
-2.38799e-06
1.16948e-05
6.62127e-06
2.28215e-05
2.05258e-05
3.40209e-05
3.00594e-05
3.86143e-05
3.71423e-05
4.17878e-05
4.19021e-05
3.38437e-05
3.50177e-05
3.52891e-05
3.62637e-05
3.49198e-05
3.6554e-05
3.63578e-05
3.96586e-05
3.89962e-05
3.77753e-05
2.53531e-05
-5.2774e-06
-6.34048e-06
-1.73456e-05
-2.26927e-06
5.69897e-08
1.42999e-05
1.89026e-05
2.74547e-05
3.0234e-05
3.48524e-05
3.46797e-05
3.37924e-05
3.283e-05
2.89865e-05
2.54607e-05
1.87327e-05
1.16829e-05
5.87509e-06
-8.13416e-07
6.94533e-06
7.1513e-06
2.19087e-05
1.97959e-05
2.97458e-05
2.59493e-05
3.18124e-05
3.03611e-05
3.37481e-05
3.36321e-05
3.00731e-05
3.04232e-05
3.06401e-05
3.08808e-05
2.93868e-05
2.97658e-05
2.91575e-05
2.9669e-05
3.00767e-05
2.6217e-05
2.10937e-05
8.20107e-07
1.03282e-06
-7.00907e-06
3.74645e-06
5.24678e-06
1.56003e-05
1.90076e-05
2.53696e-05
2.7151e-05
3.00129e-05
2.94344e-05
2.9005e-05
2.8107e-05
2.51442e-05
2.25823e-05
1.83992e-05
1.25426e-05
9.37383e-06
3.35278e-06
8.61927e-06
8.37878e-06
2.00805e-05
1.76558e-05
2.5519e-05
2.28014e-05
2.70978e-05
2.63002e-05
2.8959e-05
2.86745e-05
2.76273e-05
2.71493e-05
2.74756e-05
2.7241e-05
2.55258e-05
2.52145e-05
2.42652e-05
2.29458e-05
2.40006e-05
1.93648e-05
1.83064e-05
4.83378e-06
6.79933e-06
1.02403e-06
8.97409e-06
9.9953e-06
1.71427e-05
1.97226e-05
2.43217e-05
2.51632e-05
2.72186e-05
2.6143e-05
2.61759e-05
2.51957e-05
2.28082e-05
2.12438e-05
1.84144e-05
1.36324e-05
1.29607e-05
6.79199e-06
1.17209e-05
9.18869e-06
1.85085e-05
1.59724e-05
2.2093e-05
2.06619e-05
2.39085e-05
2.39127e-05
2.59843e-05
2.55509e-05
2.59419e-05
2.49967e-05
2.55906e-05
2.47501e-05
2.31586e-05
2.2475e-05
2.16134e-05
1.88187e-05
2.04168e-05
1.54023e-05
1.70966e-05
7.75028e-06
1.12514e-05
6.52461e-06
1.29811e-05
1.36684e-05
1.8554e-05
2.06611e-05
2.36541e-05
2.40072e-05
2.56671e-05
2.36558e-05
2.4493e-05
2.34287e-05
2.11539e-05
2.02335e-05
1.84355e-05
1.41238e-05
1.53464e-05
9.07979e-06
1.41528e-05
9.88402e-06
1.77165e-05
1.47934e-05
1.99934e-05
1.95588e-05
2.16059e-05
2.26127e-05
2.42537e-05
2.3465e-05
2.53631e-05
2.34192e-05
2.45727e-05
2.31478e-05
2.13346e-05
2.13837e-05
2.0005e-05
1.64299e-05
1.94137e-05
1.29569e-05
1.73808e-05
9.15886e-06
1.44613e-05
1.03662e-05
1.54614e-05
1.65729e-05
1.94273e-05
2.15801e-05
2.32136e-05
2.28973e-05
2.43776e-05
2.19015e-05
2.35963e-05
2.19145e-05
2.00262e-05
1.96598e-05
1.8559e-05
1.36071e-05
1.69084e-05
9.90845e-06
1.60003e-05
1.0105e-05
1.77762e-05
1.3726e-05
1.86637e-05
1.89096e-05
2.0203e-05
2.20717e-05
2.27843e-05
2.21355e-05
2.52911e-05
2.15652e-05
2.4181e-05
2.26154e-05
1.99031e-05
2.0557e-05
1.93769e-05
1.49282e-05
1.93772e-05
1.16326e-05
1.81758e-05
1.00018e-05
1.67756e-05
1.24059e-05
1.733e-05
1.86947e-05
1.92246e-05
2.24189e-05
2.33696e-05
2.1895e-05
2.39262e-05
2.00618e-05
2.30929e-05
2.09348e-05
1.8466e-05
1.96944e-05
1.83943e-05
1.26209e-05
1.84305e-05
9.14788e-06
1.77956e-05
9.28241e-06
1.79637e-05
1.28824e-05
1.75306e-05
1.89698e-05
1.88149e-05
2.19085e-05
2.17343e-05
2.04444e-05
2.51652e-05
2.0335e-05
2.42942e-05
2.16747e-05
1.87335e-05
2.06217e-05
1.9038e-05
1.32399e-05
2.00728e-05
1.03308e-05
1.94592e-05
9.94242e-06
1.87979e-05
1.30354e-05
1.8101e-05
1.99703e-05
1.90765e-05
2.32665e-05
2.28087e-05
2.09934e-05
2.41632e-05
1.73971e-05
2.30859e-05
2.05539e-05
1.58989e-05
2.01874e-05
1.81584e-05
1.06606e-05
1.96367e-05
7.44954e-06
1.92278e-05
7.76563e-06
1.85521e-05
1.14314e-05
1.63627e-05
1.96253e-05
1.65995e-05
2.20276e-05
2.1138e-05
1.79281e-05
2.52566e-05
1.84845e-05
2.48227e-05
2.09411e-05
1.71076e-05
2.13306e-05
1.86478e-05
1.10321e-05
2.16237e-05
8.08506e-06
2.13652e-05
8.40863e-06
2.05047e-05
1.22761e-05
1.82289e-05
2.08809e-05
1.79135e-05
2.41944e-05
2.21241e-05
1.96081e-05
2.42655e-05
1.41788e-05
2.39349e-05
1.94266e-05
1.25914e-05
2.13749e-05
1.76893e-05
6.98529e-06
2.13559e-05
3.98188e-06
2.10791e-05
4.61912e-06
1.95714e-05
8.66073e-06
1.48825e-05
1.996e-05
1.37865e-05
2.27498e-05
1.9645e-05
1.48683e-05
2.59322e-05
1.56407e-05
2.58027e-05
1.99839e-05
1.39301e-05
2.26429e-05
1.79631e-05
8.0248e-06
2.3214e-05
4.97705e-06
2.30957e-05
5.71944e-06
2.17668e-05
9.81288e-06
1.76519e-05
2.19182e-05
1.54434e-05
2.51721e-05
2.09745e-05
1.67699e-05
2.52209e-05
7.7706e-06
2.65449e-05
1.84653e-05
5.68359e-06
2.45964e-05
1.71193e-05
-8.28859e-07
2.49201e-05
-3.28511e-06
2.4592e-05
-2.24148e-06
2.20059e-05
2.27817e-06
1.23068e-05
2.13914e-05
7.72353e-06
2.48497e-05
1.80199e-05
8.94966e-06
2.63494e-05
1.05257e-05
2.76596e-05
1.7835e-05
8.49388e-06
2.52588e-05
1.62185e-05
2.11353e-06
2.54138e-05
-8.20639e-07
2.51369e-05
2.29435e-07
2.29462e-05
4.57155e-06
1.58024e-05
2.21354e-05
1.042e-05
2.64687e-05
1.81815e-05
1.19694e-05
2.84093e-05
-6.53194e-06
3.41917e-05
1.4628e-05
-1.15996e-05
3.42053e-05
1.40984e-05
-1.94253e-05
3.2559e-05
-2.01718e-05
3.15164e-05
-1.84949e-05
2.72935e-05
-1.366e-05
7.05058e-06
2.48747e-05
-6.40072e-06
3.11324e-05
1.31194e-05
-5.37782e-06
-0.0108989
-0.0105068
-0.0102012
-0.00999008
-0.00987357
-0.00986043
-0.00998058
-0.0102144
-0.0105565
-0.0109831
-0.011472
-0.0119722
-0.0124204
-0.0127378
-0.0128724
-0.0128352
-0.0126344
-0.0122852
-0.011838
-0.0113563
0.00233773
0.00228766
0.00215304
0.00198968
0.00183531
0.00174668
0.00168012
0.0015982
0.00147929
0.00132784
0.00112821
0.000906972
0.000719137
0.000625706
0.000688571
0.000957589
0.00133513
0.001727
0.00205593
0.0022665
-0.00230957
-0.00207143
-0.00188528
-0.0017496
-0.00170083
-0.0017569
-0.00188443
-0.00203343
-0.00225036
-0.002505
-0.00283497
-0.00318525
-0.00348885
-0.00366106
-0.0037017
-0.00363055
-0.00344538
-0.00316817
-0.00286526
-0.00257344
0.00289121
0.00295704
0.00298289
0.00300167
0.00300693
0.00300753
0.00294166
0.00286531
0.0027006
0.00251016
0.00218465
0.00181567
0.00150459
0.00136839
0.00149222
0.00174872
0.00208518
0.00238951
0.00262438
0.00278916
-0.000453254
-0.000303949
-0.000230339
-0.000182916
-0.000220538
-0.000236111
-0.000297374
-0.000343185
-0.000496885
-0.00068987
-0.00110678
-0.00161391
-0.00205056
-0.00229096
-0.00232118
-0.00214174
-0.00178162
-0.0013685
-0.000982487
-0.000671365
0.00200518
0.00210845
0.00216018
0.00220681
0.00220333
0.00219364
0.00211127
0.00204081
0.00184771
0.00162834
0.00112174
0.000586241
0.000200986
0.000128672
0.000334402
0.000689458
0.00106887
0.00139969
0.00166693
0.00186814
5.77379e-05
0.000103031
0.000107879
0.000112505
8.99667e-05
0.000111653
8.11799e-05
7.39042e-05
-7.04645e-05
-0.000275461
-0.000869689
-0.0015033
-0.00191476
-0.0019885
-0.00170664
-0.00125794
-0.000799185
-0.000439751
-0.000184507
-2.56497e-05
0.00124266
0.00131361
0.0013467
0.00138092
0.00135659
0.00134281
0.00126632
0.00120069
0.00101543
0.000768812
0.000130863
-0.00045475
-0.000717383
-0.000551575
-0.000173819
0.000226297
0.000583146
0.000837564
0.00102523
0.00115442
0.000169671
0.000180432
0.000168395
0.000169643
0.000161969
0.000185883
0.000165916
0.00016059
3.87028e-05
-0.000180428
-0.00085143
-0.00147526
-0.00168231
-0.0014308
-0.000963147
-0.000557989
-0.000233872
-3.99045e-05
8.36152e-05
0.000145289
0.000736108
0.00077644
0.000792589
0.000808052
0.000785308
0.000770055
0.000710635
0.000655553
0.000513295
0.000287961
-0.000330241
-0.000829211
-0.000834752
-0.000542673
-0.000131543
0.000160406
0.000389488
0.000521419
0.000622549
0.000687868
0.000176093
0.000180342
0.000170204
0.000175909
0.000170449
0.000188586
0.000173963
0.000177547
9.68053e-05
-4.77656e-05
-0.000618143
-0.00114319
-0.00108227
-0.000784911
-0.000406618
-0.000175894
8.25506e-07
8.35824e-05
0.00014292
0.000166753
0.000432959
0.000453878
0.000459657
0.00046563
0.000446484
0.00043354
0.000390036
0.000354006
0.000263701
0.000137807
-0.000323151
-0.000612105
-0.000498954
-0.000235156
3.28475e-05
0.000167596
0.000279742
0.000328803
0.000378885
0.000407901
0.000154019
0.000158965
0.000154071
0.000161369
0.000156619
0.000172045
0.000162885
0.00018898
0.00015488
0.00017912
-0.000198548
-0.000571028
-0.000484747
-0.000326041
-0.000118771
-2.80328e-05
6.34131e-05
9.63844e-05
0.000132592
0.000145473
0.000260556
0.000271174
0.000271786
0.00027397
0.000257666
0.000247607
0.000214864
0.000196122
0.000149914
0.000141009
-8.00191e-05
-0.000195305
-0.000122943
-8.97114e-06
0.000111375
0.000142058
0.000193388
0.000206119
0.000234064
0.000246729
0.000126353
0.00013235
0.000131195
0.000138208
0.00013422
0.000147726
0.000143458
0.000184297
0.000190996
0.000364543
0.000228979
-0.000145455
-0.000153901
-0.000139858
-4.94121e-05
-1.21791e-05
5.26684e-05
7.40893e-05
0.000105122
0.000116353
0.000165254
0.000170974
0.000169664
0.000170257
0.000156506
0.000148164
0.000121444
0.000109057
7.81408e-05
0.000145243
0.000252763
1.02864e-05
-2.17653e-05
-1.46163e-05
5.40815e-05
6.72208e-05
0.000114193
0.000125044
0.000148312
0.000156031
0.000101884
0.00010756
0.00010806
0.000113697
0.000110308
0.00011975
0.000116122
0.000140986
0.000130499
0.00018592
0.000109392
-6.02544e-05
-5.43964e-05
-7.61561e-05
-1.54439e-05
-5.3199e-06
4.15657e-05
5.62061e-05
8.23774e-05
9.20366e-05
0.000113693
0.000116733
0.00011503
0.000114953
0.000103897
9.68166e-05
7.60033e-05
6.32047e-05
4.19203e-05
4.40698e-05
7.65428e-05
6.11203e-06
3.02666e-05
2.23012e-05
6.18337e-05
5.81213e-05
8.63579e-05
8.8176e-05
0.000103849
0.000107532
8.32098e-05
8.75426e-05
8.83904e-05
9.22773e-05
8.92267e-05
9.48781e-05
9.22185e-05
0.000104348
9.71142e-05
0.00010662
6.41211e-05
-2.50239e-05
-1.69118e-05
-4.11016e-05
5.95539e-08
3.00448e-06
3.74394e-05
4.7043e-05
6.75174e-05
7.47645e-05
8.54112e-05
8.69395e-05
8.5491e-05
8.50942e-05
7.65526e-05
7.07807e-05
5.52744e-05
4.34221e-05
2.78955e-05
1.78855e-05
3.20927e-05
1.00652e-05
4.04747e-05
3.16152e-05
5.94403e-05
5.14619e-05
7.00539e-05
6.85509e-05
7.94125e-05
8.10063e-05
7.01725e-05
7.2815e-05
7.34942e-05
7.57491e-05
7.26402e-05
7.54712e-05
7.31553e-05
7.77392e-05
7.41438e-05
7.05649e-05
4.94856e-05
-4.92041e-06
9.91151e-07
-1.92307e-05
9.73344e-06
1.05994e-05
3.61817e-05
4.27879e-05
5.83899e-05
6.3283e-05
6.94432e-05
6.99433e-05
6.90182e-05
6.84436e-05
6.19774e-05
5.76017e-05
4.64821e-05
3.64406e-05
2.62611e-05
1.48713e-05
2.35165e-05
1.48772e-05
4.13901e-05
3.34014e-05
5.40149e-05
4.63928e-05
5.94917e-05
5.75316e-05
6.54541e-05
6.60496e-05
6.16683e-05
6.25813e-05
6.31603e-05
6.40431e-05
6.08738e-05
6.17714e-05
5.93873e-05
5.9511e-05
5.85936e-05
5.06902e-05
4.23517e-05
6.75533e-06
1.28376e-05
-2.54501e-06
1.85316e-05
1.85358e-05
3.71276e-05
4.17583e-05
5.32442e-05
5.61503e-05
6.04075e-05
5.97766e-05
5.95233e-05
5.8694e-05
5.35741e-05
5.04102e-05
4.33175e-05
3.44708e-05
2.91871e-05
1.82013e-05
2.53569e-05
1.88501e-05
4.00089e-05
3.2415e-05
4.85666e-05
4.288e-05
5.24446e-05
5.12952e-05
5.7288e-05
5.71506e-05
5.64345e-05
5.5639e-05
5.64714e-05
5.63573e-05
5.29696e-05
5.28545e-05
5.03944e-05
4.75582e-05
4.8652e-05
3.93631e-05
3.84224e-05
1.43316e-05
2.19711e-05
1.03603e-05
2.62008e-05
2.59877e-05
3.88771e-05
4.2374e-05
5.05795e-05
5.17454e-05
5.52395e-05
5.33536e-05
5.39116e-05
5.26131e-05
4.8351e-05
4.65652e-05
4.17006e-05
3.39552e-05
3.32485e-05
2.17174e-05
2.98424e-05
2.13553e-05
3.87009e-05
3.15476e-05
4.42505e-05
4.08688e-05
4.78632e-05
4.79603e-05
5.23705e-05
5.16455e-05
5.31295e-05
5.10863e-05
5.2565e-05
5.12534e-05
4.8062e-05
4.7531e-05
4.54593e-05
4.01974e-05
4.31489e-05
3.29283e-05
3.72269e-05
1.9622e-05
2.90801e-05
1.92519e-05
3.21335e-05
3.19514e-05
4.06485e-05
4.37393e-05
4.90138e-05
4.91604e-05
5.24574e-05
4.86201e-05
5.06711e-05
4.88508e-05
4.47174e-05
4.40138e-05
4.07542e-05
3.32276e-05
3.62931e-05
2.40594e-05
3.37352e-05
2.31016e-05
3.84227e-05
3.09624e-05
4.17608e-05
4.02941e-05
4.46232e-05
4.64525e-05
4.95586e-05
4.80126e-05
5.18963e-05
4.7743e-05
5.0521e-05
4.79772e-05
4.44013e-05
4.51951e-05
4.25256e-05
3.57019e-05
4.18108e-05
2.88564e-05
3.83633e-05
2.2197e-05
3.43784e-05
2.53459e-05
3.58619e-05
3.6787e-05
4.16839e-05
4.53206e-05
4.80392e-05
4.69488e-05
5.04584e-05
4.51231e-05
4.90443e-05
4.59094e-05
4.21181e-05
4.26373e-05
4.035e-05
3.13502e-05
3.86459e-05
2.44081e-05
3.70222e-05
2.36499e-05
3.93095e-05
3.0071e-05
4.0251e-05
4.02694e-05
4.2521e-05
4.61521e-05
4.72831e-05
4.55645e-05
5.17083e-05
4.41159e-05
4.97964e-05
4.65393e-05
4.14298e-05
4.37288e-05
4.12447e-05
3.25203e-05
4.21975e-05
2.6209e-05
4.03725e-05
2.33811e-05
3.83779e-05
2.84293e-05
3.8608e-05
4.04533e-05
4.10659e-05
4.69296e-05
4.79901e-05
4.49075e-05
4.98913e-05
4.14864e-05
4.83463e-05
4.39482e-05
3.89267e-05
4.25686e-05
3.97392e-05
2.8774e-05
4.12773e-05
2.23146e-05
4.04117e-05
2.21758e-05
4.03771e-05
2.89487e-05
3.88252e-05
4.11201e-05
4.01796e-05
4.64574e-05
4.55779e-05
4.25095e-05
5.17024e-05
4.12067e-05
5.01199e-05
4.46866e-05
3.86528e-05
4.39597e-05
4.0436e-05
2.88513e-05
4.3899e-05
2.31867e-05
4.32075e-05
2.26419e-05
4.19808e-05
2.89656e-05
3.96116e-05
4.28952e-05
4.01881e-05
4.86413e-05
4.68852e-05
4.2774e-05
5.04691e-05
3.64348e-05
4.86936e-05
4.28589e-05
3.40459e-05
4.36224e-05
3.90368e-05
2.44737e-05
4.38091e-05
1.84105e-05
4.3508e-05
1.90243e-05
4.20522e-05
2.62837e-05
3.70769e-05
4.26902e-05
3.62367e-05
4.72471e-05
4.4323e-05
3.79754e-05
5.21669e-05
3.70067e-05
5.1412e-05
4.30681e-05
3.47691e-05
4.55767e-05
3.9476e-05
2.38859e-05
4.71174e-05
1.81606e-05
4.7114e-05
1.90081e-05
4.52334e-05
2.67673e-05
3.94549e-05
4.47642e-05
3.73361e-05
5.06203e-05
4.53614e-05
3.95111e-05
5.10319e-05
3.00199e-05
5.06674e-05
4.05991e-05
2.74749e-05
4.62073e-05
3.78728e-05
1.70617e-05
4.74585e-05
1.1227e-05
4.74668e-05
1.26554e-05
4.44338e-05
2.08099e-05
3.45638e-05
4.3761e-05
3.07293e-05
4.90571e-05
4.14848e-05
3.20759e-05
5.36498e-05
3.05887e-05
5.38939e-05
4.09036e-05
2.77795e-05
4.87541e-05
3.78849e-05
1.67535e-05
5.08875e-05
1.08461e-05
5.11375e-05
1.25904e-05
4.80845e-05
2.10055e-05
3.79537e-05
4.68445e-05
3.17173e-05
5.29834e-05
4.277e-05
3.34109e-05
5.30278e-05
1.81885e-05
5.57987e-05
3.82377e-05
1.47558e-05
5.25548e-05
3.62552e-05
2.67558e-06
5.42832e-05
-2.4385e-06
5.41889e-05
-1.51978e-07
4.90619e-05
8.96746e-06
3.01175e-05
4.64344e-05
1.96063e-05
5.3212e-05
3.79337e-05
2.12485e-05
5.50647e-05
1.98215e-05
5.84577e-05
3.66516e-05
1.62076e-05
5.48825e-05
3.44028e-05
4.04292e-06
5.62186e-05
-1.66767e-06
5.61315e-05
7.76584e-07
5.12184e-05
9.81101e-06
3.42157e-05
4.79736e-05
2.12539e-05
5.63713e-05
3.72803e-05
2.34008e-05
5.8371e-05
-4.62697e-06
6.87672e-05
3.15897e-05
-1.24855e-05
6.88962e-05
3.09815e-05
-2.67909e-05
6.74559e-05
-2.95795e-05
6.62028e-05
-2.61794e-05
5.8077e-05
-1.64446e-05
2.20444e-05
5.22855e-05
-2.7791e-06
6.37476e-05
2.93777e-05
-1.21564e-06
-0.0134134
-0.0128635
-0.0124133
-0.0120854
-0.0118933
-0.0118667
-0.0120218
-0.0123372
-0.0128023
-0.0133815
-0.0140389
-0.0147058
-0.0153006
-0.015728
-0.0159231
-0.0158937
-0.0156519
-0.0152186
-0.0146526
-0.0140276
0.00196136
0.00201431
0.00194449
0.00180789
0.00164985
0.00153559
0.00140137
0.00122923
0.000997005
0.000714112
0.000369298
2.99069e-06
-0.000308499
-0.00048159
-0.000435455
-0.000120512
0.000359811
0.000894598
0.00138476
0.00175352
-0.00270625
-0.0023955
-0.00217865
-0.00204393
-0.00203071
-0.00213848
-0.00233554
-0.00257487
-0.00290908
-0.00330623
-0.00380618
-0.00432956
-0.00477414
-0.00501557
-0.00504749
-0.00486815
-0.00450721
-0.00402891
-0.00353546
-0.00308569
0.00336587
0.00344586
0.00346613
0.00347032
0.00344807
0.00340479
0.00327982
0.00312591
0.00284879
0.0025134
0.00199848
0.00144305
0.00101024
0.000869139
0.00111742
0.00156244
0.00210986
0.00259934
0.00297104
0.00322142
-0.000277586
-0.000116635
-4.46119e-05
-7.57318e-06
-6.84159e-05
-0.000109226
-0.000218996
-0.000331673
-0.000597635
-0.000947298
-0.00158713
-0.00230466
-0.00284288
-0.00305636
-0.00292821
-0.00253049
-0.00196097
-0.0013863
-0.00089526
-0.000524542
0.00245635
0.00257772
0.00263528
0.00268311
0.00266071
0.00262789
0.00249699
0.00236094
0.00205177
0.00166606
0.000911759
0.00017546
-0.000266224
-0.000220132
0.000179801
0.000734967
0.00127324
0.00171175
0.00204774
0.00229242
0.000286289
0.000345879
0.000353955
0.00035698
0.000325082
0.0003331
0.000265096
0.000204115
-4.9869e-05
-0.000424421
-0.0012899
-0.0021212
-0.00255661
-0.00248053
-0.00199112
-0.0013604
-0.000769147
-0.000324992
-1.42855e-05
0.000180731
0.00156866
0.00165848
0.00169892
0.00173592
0.00169923
0.00166959
0.00155432
0.00143468
0.001142
0.000725182
-0.000185891
-0.000937426
-0.00116211
-0.000838604
-0.000270586
0.000270318
0.000728917
0.00105074
0.0012887
0.0014546
0.000364565
0.000387255
0.000377596
0.000381371
0.000365724
0.000381218
0.000332144
0.000284784
6.89336e-05
-0.000311409
-0.0012548
-0.0020252
-0.00215838
-0.00173974
-0.00110229
-0.000583066
-0.000176277
7.06964e-05
0.00023411
0.000322841
0.000957973
0.00101116
0.00103135
0.00104829
0.00101643
0.000990703
0.000902567
0.000807726
0.000580685
0.000207706
-0.000664555
-0.00126756
-0.00117315
-0.000728798
-0.000180297
0.000196629
0.000491209
0.000665652
0.000801964
0.000892127
0.000325068
0.00033756
0.000328694
0.000336902
0.000325209
0.000338431
0.000303222
0.000279997
0.000131554
-0.000135021
-0.000937955
-0.00154787
-0.00137445
-0.000948714
-0.000458636
-0.00016526
6.3006e-05
0.000176856
0.000262954
0.000304062
0.000581787
0.000610623
0.000618091
0.000625253
0.000599035
0.000579725
0.000516786
0.000456961
0.000311512
8.63783e-05
-0.000570317
-0.000898124
-0.00068213
-0.000316972
3.29498e-05
0.000208639
0.00035918
0.000430435
0.000502501
0.00054593
0.000263356
0.000274117
0.000270061
0.00027958
0.000270115
0.0002837
0.000261732
0.000277591
0.000205678
0.000170324
-0.000370869
-0.000785025
-0.000613442
-0.000388342
-0.000119443
-2.35779e-06
0.000119842
0.000168987
0.000223076
0.000246684
0.000361815
0.00037749
0.000378719
0.000382007
0.000360189
0.000346659
0.000301262
0.000272189
0.00019787
0.000146173
-0.000187909
-0.000317072
-0.000180218
-2.33572e-05
0.000137104
0.000180714
0.000254328
0.000277497
0.00031986
0.000340951
0.000206159
0.000216479
0.000215991
0.00022494
0.000217353
0.000230897
0.000219202
0.000260968
0.000253709
0.000423142
0.000206312
-0.000225192
-0.000191495
-0.000160675
-3.71676e-05
9.35609e-06
9.58639e-05
0.000126809
0.000171397
0.000189949
0.000236722
0.000245901
0.000244797
0.000246349
0.000228157
0.000217816
0.000182119
0.000166014
0.000121164
0.000188814
0.000274963
-2.73409e-05
-3.85621e-05
-2.35493e-05
7.15284e-05
9.13131e-05
0.000156789
0.000174492
0.000209019
0.000222354
0.000161461
0.000170323
0.000171308
0.000178471
0.000172169
0.000181947
0.000173129
0.000199711
0.000180291
0.000239962
0.000133786
-8.61639e-05
-6.74582e-05
-9.09385e-05
-6.4833e-06
8.36992e-06
7.32474e-05
9.46595e-05
0.000131797
0.00014673
0.000166963
0.000172371
0.000170702
0.000171363
0.000156705
0.000148194
0.000120603
0.000105036
7.46845e-05
7.54943e-05
9.95028e-05
-3.09234e-06
3.2773e-05
2.18459e-05
7.95501e-05
7.7378e-05
0.00011951
0.000125283
0.000149549
0.000156949
0.000129668
0.000136186
0.000137316
0.00014226
0.000136744
0.000142483
0.000135915
0.0001483
0.000135188
0.000143407
8.70181e-05
-3.22876e-05
-1.60835e-05
-4.63064e-05
1.15269e-05
1.60783e-05
6.40412e-05
7.78366e-05
0.000106676
0.00011749
0.000127636
0.000130684
0.000129193
0.000129272
0.000117806
0.000110875
9.02541e-05
7.56206e-05
5.38057e-05
3.9844e-05
4.99977e-05
1.14312e-05
5.16948e-05
3.78251e-05
7.87077e-05
6.99093e-05
9.85989e-05
9.91289e-05
0.000116377
0.000120326
0.000108399
0.000112348
0.000113154
0.000116009
0.000110718
0.000113343
0.000107943
0.000111616
0.000104255
9.70095e-05
6.93606e-05
-3.31162e-06
9.08266e-06
-1.71417e-05
2.40265e-05
2.49982e-05
6.05847e-05
6.97055e-05
9.15262e-05
9.86728e-05
0.000104984
0.000106278
0.000105312
0.000104938
9.60596e-05
9.07384e-05
7.58251e-05
6.30661e-05
4.88966e-05
3.28504e-05
4.00923e-05
2.17221e-05
5.65342e-05
4.36936e-05
7.40516e-05
6.49837e-05
8.55216e-05
8.46683e-05
9.73388e-05
9.93472e-05
9.48772e-05
9.63017e-05
9.69715e-05
9.80401e-05
9.28869e-05
9.33991e-05
8.85411e-05
8.70263e-05
8.39899e-05
7.17539e-05
6.09816e-05
1.35949e-05
2.54261e-05
4.98003e-06
3.52669e-05
3.48221e-05
6.07201e-05
6.69293e-05
8.29586e-05
8.71426e-05
9.19834e-05
9.14381e-05
9.12583e-05
9.03367e-05
8.31346e-05
7.92407e-05
6.9432e-05
5.78954e-05
5.05785e-05
3.48854e-05
4.24852e-05
2.90406e-05
5.72126e-05
4.53071e-05
6.90477e-05
6.20776e-05
7.71325e-05
7.67811e-05
8.62807e-05
8.68435e-05
8.66845e-05
8.56369e-05
8.66997e-05
8.63974e-05
8.11372e-05
8.06354e-05
7.61776e-05
7.1182e-05
7.15784e-05
5.77398e-05
5.70174e-05
2.46145e-05
3.77644e-05
2.1921e-05
4.49229e-05
4.42159e-05
6.23028e-05
6.69769e-05
7.8416e-05
8.0104e-05
8.45242e-05
8.19982e-05
8.29032e-05
8.11708e-05
7.50147e-05
7.28012e-05
6.59151e-05
5.54268e-05
5.44352e-05
3.80334e-05
4.81939e-05
3.37126e-05
5.73506e-05
4.63349e-05
6.51586e-05
6.09621e-05
7.19054e-05
7.28583e-05
7.97455e-05
7.91543e-05
8.16906e-05
7.86376e-05
8.07142e-05
7.87873e-05
7.37943e-05
7.30651e-05
6.93821e-05
6.1457e-05
6.51004e-05
4.99669e-05
5.65546e-05
3.22281e-05
4.73234e-05
3.36383e-05
5.23793e-05
5.1921e-05
6.41392e-05
6.84154e-05
7.58121e-05
7.59129e-05
8.05154e-05
7.51494e-05
7.81054e-05
7.54505e-05
6.94246e-05
6.87173e-05
6.38692e-05
5.33141e-05
5.7759e-05
4.01539e-05
5.34368e-05
3.6844e-05
5.83841e-05
4.71359e-05
6.31692e-05
6.14438e-05
6.83082e-05
7.13725e-05
7.60434e-05
7.4104e-05
7.96496e-05
7.35118e-05
7.75763e-05
7.39163e-05
6.84212e-05
6.95853e-05
6.54318e-05
5.537e-05
6.38405e-05
4.50342e-05
5.88865e-05
3.61009e-05
5.45506e-05
4.15793e-05
5.71432e-05
5.82673e-05
6.51643e-05
7.03983e-05
7.42312e-05
7.25413e-05
7.78854e-05
6.99825e-05
7.57215e-05
7.11955e-05
6.53518e-05
6.65656e-05
6.28618e-05
5.01457e-05
6.07214e-05
3.99897e-05
5.81163e-05
3.8016e-05
6.05549e-05
4.70389e-05
6.20691e-05
6.24332e-05
6.58609e-05
7.14294e-05
7.31686e-05
7.05722e-05
7.91825e-05
6.82441e-05
7.64261e-05
7.15052e-05
6.40142e-05
6.7614e-05
6.36301e-05
5.08014e-05
6.48605e-05
4.14899e-05
6.22879e-05
3.77187e-05
6.01236e-05
4.55244e-05
6.05475e-05
6.31924e-05
6.4174e-05
7.25732e-05
7.38186e-05
6.94403e-05
7.71575e-05
6.46921e-05
7.4811e-05
6.83174e-05
6.06635e-05
6.63498e-05
6.18387e-05
4.61085e-05
6.42911e-05
3.67937e-05
6.29959e-05
3.62723e-05
6.28049e-05
4.60397e-05
6.07736e-05
6.42434e-05
6.28616e-05
7.22539e-05
7.09439e-05
6.6296e-05
7.91985e-05
6.36611e-05
7.68417e-05
6.88238e-05
5.96731e-05
6.7989e-05
6.24431e-05
4.54196e-05
6.75942e-05
3.70548e-05
6.66746e-05
3.64296e-05
6.51327e-05
4.59434e-05
6.16968e-05
6.66504e-05
6.25297e-05
7.49686e-05
7.21926e-05
6.6028e-05
7.78988e-05
5.75938e-05
7.54393e-05
6.64878e-05
5.38284e-05
6.78483e-05
6.07363e-05
3.97532e-05
6.80312e-05
3.10172e-05
6.76745e-05
3.18738e-05
6.56638e-05
4.25438e-05
5.87501e-05
6.66982e-05
5.7608e-05
7.36941e-05
6.90568e-05
6.00628e-05
7.99085e-05
5.72519e-05
7.87269e-05
6.63859e-05
5.36472e-05
7.03739e-05
6.10178e-05
3.79988e-05
7.2271e-05
2.96699e-05
7.23597e-05
3.10269e-05
6.9714e-05
4.24544e-05
6.11911e-05
6.9364e-05
5.81167e-05
7.77898e-05
6.98749e-05
6.09212e-05
7.87814e-05
4.84547e-05
7.83001e-05
6.32756e-05
4.45012e-05
7.1578e-05
5.90075e-05
2.92306e-05
7.33248e-05
2.07943e-05
7.34799e-05
2.29472e-05
6.92934e-05
3.49413e-05
5.54562e-05
6.84915e-05
4.99038e-05
7.64116e-05
6.51063e-05
5.1744e-05
8.1903e-05
4.7698e-05
8.24313e-05
6.3167e-05
4.33574e-05
7.51082e-05
5.86993e-05
2.72303e-05
7.79156e-05
1.87598e-05
7.83853e-05
2.14386e-05
7.39131e-05
3.38898e-05
5.87615e-05
7.22769e-05
4.97954e-05
8.12693e-05
6.59994e-05
5.19606e-05
8.13789e-05
3.25884e-05
8.51944e-05
5.97176e-05
2.74765e-05
8.01784e-05
5.65373e-05
1.00099e-05
8.25003e-05
2.43892e-06
8.25603e-05
5.83429e-06
7.5466e-05
1.91466e-05
4.95384e-05
7.20211e-05
3.51011e-05
8.19753e-05
5.99305e-05
3.72271e-05
8.39843e-05
3.26965e-05
8.90463e-05
5.74246e-05
2.71626e-05
8.39064e-05
5.40697e-05
9.39342e-06
8.56857e-05
1.26067e-06
8.57273e-05
4.95836e-06
7.85684e-05
1.82999e-05
5.34731e-05
7.42005e-05
3.53294e-05
8.62233e-05
5.85288e-05
3.80007e-05
8.75978e-05
4.92502e-06
0.000101064
5.13466e-05
-5.34717e-06
0.000100281
4.9974e-05
-2.55562e-05
9.87833e-05
-3.04601e-05
9.74695e-05
-2.56577e-05
8.64025e-05
-1.1574e-05
3.95038e-05
7.90366e-05
8.07224e-06
9.4652e-05
4.90083e-05
1.01731e-05
-0.0148153
-0.0141885
-0.0136732
-0.0132972
-0.0130831
-0.0130668
-0.013256
-0.0136288
-0.0141714
-0.0148412
-0.0155937
-0.0163494
-0.0170156
-0.0174876
-0.0176959
-0.017649
-0.0173623
-0.0168637
-0.01622
-0.0155119
0.00145479
0.00156008
0.00152753
0.00141214
0.00126426
0.00114143
0.000966658
0.000736648
0.000428337
5.73929e-05
-0.000381864
-0.000836978
-0.00121679
-0.00142534
-0.00137123
-0.00101271
-0.000463847
0.000154594
0.000731084
0.00117969
-0.00305515
-0.00269575
-0.00245557
-0.00231738
-0.00232852
-0.00246998
-0.0027151