/*--------------------------------*- C++ -*----------------------------------*\
| =========                 |                                                 |
| \\      /  F ield         | OpenFOAM: The Open Source CFD Toolbox           |
|  \\    /   O peration     | Version:  2.4.0                                 |
|   \\  /    A nd           | Web:      www.OpenFOAM.org                      |
|    \\/     M anipulation  |                                                 |
\*---------------------------------------------------------------------------*/
FoamFile
{
    version     2.0;
    format      ascii;
    class       volScalarField;
    location    "220";
    object      p;
}
// * * * * * * * * * * * * * * * * * * * * * * * * * * * * * * * * * * * * * //

dimensions      [0 2 -2 0 0 0 0];

internalField   nonuniform List<scalar> 
283312
(
-0.00623464
-0.00629651
-0.00653886
-0.00688047
-0.00723255
-0.00752562
-0.00775275
-0.00790974
-0.00802997
-0.00813762
-0.00825336
-0.00836417
-0.00843784
-0.00841848
-0.00827068
-0.00800152
-0.00762318
-0.00717126
-0.00672664
-0.00638784
0.00216177
0.00165113
0.00121941
0.000947789
0.000848175
0.000914348
0.00105872
0.00120151
0.00131473
0.00140654
0.00147956
0.00156522
0.00170049
0.00190744
0.00219682
0.00256787
0.00288392
0.00303194
0.00294892
0.00263501
-0.00230563
-0.00215124
-0.00192455
-0.00168184
-0.00148806
-0.00139015
-0.00137143
-0.00137684
-0.00142431
-0.0014625
-0.00148687
-0.00145842
-0.00138107
-0.00127909
-0.00123331
-0.00134615
-0.00159784
-0.00190268
-0.00217205
-0.00231768
0.00146389
0.00164053
0.00178677
0.00190306
0.00198649
0.0020558
0.00206308
0.00207076
0.00203981
0.0020559
0.00208166
0.00213579
0.00216334
0.002113
0.00197335
0.00172229
0.00146646
0.0012821
0.00123064
0.00130986
-0.00074889
-0.00054806
-0.000430244
-0.000351341
-0.000347846
-0.000334947
-0.000346338
-0.000331733
-0.000359327
-0.000329633
-0.000327275
-0.000376443
-0.000562322
-0.000899445
-0.00134446
-0.0016941
-0.00178322
-0.00163455
-0.0013415
-0.00101915
0.00119133
0.00130241
0.00136103
0.00140714
0.00142118
0.00142882
0.00139466
0.00138222
0.00131975
0.00133577
0.00129213
0.00117313
0.00088293
0.000498151
0.000214361
0.000140124
0.000276019
0.000529256
0.000802823
0.00103166
-0.000154077
-0.000113424
-0.000105934
-9.96236e-05
-0.000110906
-8.58627e-05
-8.63082e-05
-5.77228e-05
-8.77038e-05
-5.82423e-05
-0.000160328
-0.00042249
-0.000852034
-0.00128599
-0.00143387
-0.00128133
-0.00096086
-0.000639963
-0.000391917
-0.000235402
0.000755553
0.000805082
0.000828823
0.000853938
0.000842546
0.0008391
0.000801844
0.00078152
0.000713768
0.000705191
0.00055336
0.00024726
-0.000158943
-0.000364397
-0.000326034
-9.82908e-05
0.000188777
0.000419388
0.000584362
0.000689614
-3.03693e-06
-7.06659e-07
-1.12193e-05
-1.25311e-05
-1.39446e-05
7.88352e-06
9.67057e-06
2.93101e-05
2.0476e-06
6.30542e-06
-0.000183382
-0.000584073
-0.000984537
-0.00107524
-0.000871704
-0.000585933
-0.000321973
-0.000156514
-5.92181e-05
-1.60048e-05
0.000436993
0.000461685
0.000472512
0.000483161
0.000470495
0.000462173
0.000432014
0.000409631
0.000357018
0.000340077
0.000162521
-0.000203109
-0.000452894
-0.000442201
-0.000216083
5.84387e-06
0.000189239
0.000294566
0.000365531
0.000407445
4.2023e-05
4.03225e-05
3.16715e-05
3.37103e-05
3.30094e-05
4.80373e-05
4.83998e-05
6.45137e-05
4.75819e-05
7.22687e-05
-0.000102743
-0.000528856
-0.000708437
-0.000628299
-0.000389063
-0.000206514
-6.9774e-05
-7.01736e-06
2.99695e-05
4.09262e-05
0.000248388
0.00026017
0.000263962
0.000267191
0.0002561
0.000247356
0.000223947
0.000206232
0.000171307
0.000189865
5.4567e-05
-0.000225247
-0.000329056
-0.000223953
-4.5458e-05
6.7548e-05
0.000152421
0.000188596
0.000218619
0.000234561
5.3709e-05
5.38522e-05
4.94854e-05
5.30678e-05
5.19393e-05
6.32549e-05
6.29555e-05
8.64442e-05
8.3161e-05
0.000189131
7.56983e-05
-0.000270107
-0.000353595
-0.000288761
-0.000144746
-6.39649e-05
3.3603e-06
2.71996e-05
4.71005e-05
5.1788e-05
0.000144052
0.00014924
0.00014941
0.000149749
0.00014
0.000132219
0.00011319
0.000100924
8.05628e-05
0.000137315
9.70479e-05
-5.13381e-05
-0.00010822
-5.32777e-05
3.31717e-05
6.97525e-05
0.000107033
0.0001167
0.000131522
0.000137293
5.19557e-05
5.37738e-05
5.23565e-05
5.60158e-05
5.48707e-05
6.39434e-05
6.43225e-05
9.28991e-05
0.000104946
0.000279564
0.000266846
-5.05275e-05
-0.000136784
-0.000139411
-7.5308e-05
-3.52677e-05
1.03722e-05
2.60063e-05
4.30713e-05
4.79907e-05
8.81824e-05
9.03963e-05
8.91581e-05
8.8404e-05
8.00721e-05
7.32132e-05
5.69323e-05
4.62853e-05
2.84806e-05
8.54145e-05
0.000195556
3.69145e-05
-1.97582e-05
-1.98449e-05
2.10256e-05
3.4362e-05
6.27451e-05
6.94773e-05
8.11102e-05
8.41518e-05
4.57258e-05
4.79845e-05
4.79161e-05
5.08332e-05
4.97774e-05
5.58624e-05
5.5745e-05
7.22177e-05
6.84846e-05
0.000107181
6.68932e-05
-3.04125e-05
-3.9752e-05
-5.46227e-05
-2.09683e-05
-1.21537e-05
1.43064e-05
2.29436e-05
3.66161e-05
4.11785e-05
5.89915e-05
5.97521e-05
5.82303e-05
5.71691e-05
5.04516e-05
4.46127e-05
3.18748e-05
2.14854e-05
9.55165e-06
8.90304e-06
4.07551e-05
9.94784e-06
1.8915e-05
1.65026e-05
3.62119e-05
3.49339e-05
4.87576e-05
4.88126e-05
5.57409e-05
5.66319e-05
3.91691e-05
4.10342e-05
4.13312e-05
4.32441e-05
4.21743e-05
4.56892e-05
4.56991e-05
5.38487e-05
5.15401e-05
5.83415e-05
3.39272e-05
-1.50953e-05
-1.64626e-05
-3.02606e-05
-8.31394e-06
-4.64299e-06
1.4339e-05
2.03314e-05
3.12217e-05
3.49726e-05
4.34743e-05
4.35895e-05
4.22828e-05
4.12224e-05
3.60845e-05
3.14029e-05
2.19499e-05
1.30897e-05
4.37014e-06
-2.4092e-06
1.16355e-05
6.58101e-06
2.2854e-05
2.06144e-05
3.41554e-05
3.02158e-05
3.87378e-05
3.72186e-05
4.18263e-05
4.19066e-05
3.38731e-05
3.50048e-05
3.52601e-05
3.62598e-05
3.49707e-05
3.66427e-05
3.64589e-05
3.9808e-05
3.91722e-05
3.80148e-05
2.5655e-05
-4.92251e-06
-5.93019e-06
-1.69212e-05
-1.86175e-06
4.33328e-07
1.45988e-05
1.91141e-05
2.7593e-05
3.03079e-05
3.48858e-05
3.46796e-05
3.37751e-05
3.2829e-05
2.90237e-05
2.55168e-05
1.8772e-05
1.17273e-05
5.8904e-06
-7.8465e-07
6.94963e-06
7.17039e-06
2.19688e-05
1.98926e-05
2.98777e-05
2.61177e-05
3.19723e-05
3.049e-05
3.3846e-05
3.36934e-05
3.0126e-05
3.04421e-05
3.06399e-05
3.08928e-05
2.94337e-05
2.98333e-05
2.92227e-05
2.9756e-05
3.01754e-05
2.63557e-05
2.1277e-05
1.04891e-06
1.29353e-06
-6.74022e-06
4.00619e-06
5.50274e-06
1.58186e-05
1.91747e-05
2.54949e-05
2.72342e-05
3.00681e-05
2.94586e-05
2.90076e-05
2.81144e-05
2.51749e-05
2.26247e-05
1.84308e-05
1.25866e-05
9.41234e-06
3.41362e-06
8.67291e-06
8.44821e-06
2.01771e-05
1.7781e-05
2.56655e-05
2.29738e-05
2.72608e-05
2.64343e-05
2.90688e-05
2.87538e-05
2.76892e-05
2.71839e-05
2.74907e-05
2.72606e-05
2.55676e-05
2.52698e-05
2.43156e-05
2.30109e-05
2.40714e-05
1.94562e-05
1.84144e-05
4.96646e-06
6.95197e-06
1.18846e-06
9.13848e-06
1.017e-05
1.73032e-05
1.9854e-05
2.4432e-05
2.52463e-05
2.72793e-05
2.61789e-05
2.61914e-05
2.52105e-05
2.28368e-05
2.12781e-05
1.84351e-05
1.36589e-05
1.29839e-05
6.8312e-06
1.17615e-05
9.24616e-06
1.85848e-05
1.60692e-05
2.22023e-05
2.0793e-05
2.40386e-05
2.40244e-05
2.60838e-05
2.56294e-05
2.60008e-05
2.50345e-05
2.56095e-05
2.4767e-05
2.31869e-05
2.25088e-05
2.16358e-05
1.88481e-05
2.04483e-05
1.54471e-05
1.71483e-05
7.81517e-06
1.13263e-05
6.61037e-06
1.30725e-05
1.37767e-05
1.86636e-05
2.07564e-05
2.37425e-05
2.40803e-05
2.57213e-05
2.36915e-05
2.45088e-05
2.34385e-05
2.11697e-05
2.02496e-05
1.84359e-05
1.41262e-05
1.53449e-05
9.0875e-06
1.41612e-05
9.90393e-06
1.77474e-05
1.48408e-05
2.00524e-05
1.96372e-05
2.16911e-05
2.26893e-05
2.43294e-05
2.3531e-05
2.54127e-05
2.34539e-05
2.45871e-05
2.31538e-05
2.13448e-05
2.13924e-05
1.99982e-05
1.64264e-05
1.94074e-05
1.29587e-05
1.73845e-05
9.17144e-06
1.44792e-05
1.03964e-05
1.54993e-05
1.66258e-05
1.94892e-05
2.16377e-05
2.32757e-05
2.29561e-05
2.44232e-05
2.19349e-05
2.36076e-05
2.19136e-05
2.00264e-05
1.96538e-05
1.85341e-05
1.35833e-05
1.68776e-05
9.88414e-06
1.59736e-05
1.00879e-05
1.77637e-05
1.37282e-05
1.86756e-05
1.89357e-05
2.02425e-05
2.21116e-05
2.28343e-05
2.21886e-05
2.53306e-05
2.15976e-05
2.41888e-05
2.26068e-05
1.98954e-05
2.05398e-05
1.934e-05
1.48941e-05
1.93348e-05
1.15988e-05
1.81385e-05
9.9742e-06
1.67463e-05
1.23881e-05
1.73198e-05
1.86949e-05
1.92419e-05
2.244e-05
2.34051e-05
2.19408e-05
2.39581e-05
2.0089e-05
2.30947e-05
2.09185e-05
1.8448e-05
1.96624e-05
1.83409e-05
1.25699e-05
1.83664e-05
9.09313e-06
1.77333e-05
9.23138e-06
1.79081e-05
1.28402e-05
1.74967e-05
1.89448e-05
1.8812e-05
2.19118e-05
2.17563e-05
2.04827e-05
2.51911e-05
2.03619e-05
2.42938e-05
2.16536e-05
1.871e-05
2.05804e-05
1.89748e-05
1.31815e-05
1.99968e-05
1.02673e-05
1.93835e-05
9.88125e-06
1.87264e-05
1.29772e-05
1.80503e-05
1.99249e-05
1.9058e-05
2.32555e-05
2.28202e-05
2.10273e-05
2.41797e-05
1.7419e-05
2.30765e-05
2.05211e-05
1.58654e-05
2.013e-05
1.80781e-05
1.05895e-05
1.95418e-05
7.37146e-06
1.9131e-05
7.68779e-06
1.84589e-05
1.13544e-05
1.62943e-05
1.95575e-05
1.65654e-05
2.19999e-05
2.11352e-05
1.7956e-05
2.52659e-05
1.8505e-05
2.48087e-05
2.0902e-05
1.7069e-05
2.12644e-05
1.85592e-05
1.09553e-05
2.15177e-05
8.00076e-06
2.12561e-05
8.32333e-06
2.03975e-05
1.21865e-05
1.8147e-05
2.07962e-05
1.7869e-05
2.4154e-05
2.21104e-05
1.96329e-05
2.42731e-05
1.42033e-05
2.39204e-05
1.93835e-05
1.25509e-05
2.12995e-05
1.75909e-05
6.90313e-06
2.12357e-05
3.89038e-06
2.09552e-05
4.52583e-06
1.94507e-05
8.56241e-06
1.4793e-05
1.98627e-05
1.37381e-05
2.27016e-05
1.96264e-05
1.48952e-05
2.59358e-05
1.56718e-05
2.57873e-05
1.99366e-05
1.38899e-05
2.25614e-05
1.78568e-05
7.93986e-06
2.30823e-05
4.88266e-06
2.29594e-05
5.62283e-06
2.16344e-05
9.70989e-06
1.75586e-05
2.18101e-05
1.53931e-05
2.51158e-05
2.09486e-05
1.68008e-05
2.52058e-05
7.79169e-06
2.65168e-05
1.84029e-05
5.63174e-06
2.4495e-05
1.69944e-05
-9.22617e-07
2.4766e-05
-3.3881e-06
2.44346e-05
-2.34736e-06
2.18551e-05
2.16586e-06
1.22042e-05
2.12642e-05
7.66207e-06
2.47744e-05
1.79762e-05
8.9676e-06
2.63268e-05
1.05387e-05
2.76274e-05
1.7772e-05
8.43364e-06
2.51536e-05
1.60935e-05
2.01387e-06
2.52539e-05
-9.29766e-07
2.4973e-05
1.1697e-07
2.27898e-05
4.45214e-06
1.56863e-05
2.20011e-05
1.03487e-05
2.63886e-05
1.81372e-05
1.19789e-05
2.83806e-05
-6.50202e-06
3.41603e-05
1.45638e-05
-1.16399e-05
3.40956e-05
1.39714e-05
-1.94949e-05
3.23909e-05
-2.02503e-05
3.13464e-05
-1.85781e-05
2.71351e-05
-1.37499e-05
6.95859e-06
2.47369e-05
-6.44547e-06
3.1049e-05
1.30729e-05
-5.34948e-06
-0.0109091
-0.0105154
-0.0102085
-0.00999593
-0.00987792
-0.00986205
-0.00997892
-0.0102093
-0.0105478
-0.0109712
-0.0114581
-0.011958
-0.0124079
-0.012729
-0.0128675
-0.0128335
-0.0126368
-0.0122914
-0.011847
-0.0113669
0.00235622
0.00230614
0.00217068
0.00200614
0.00185059
0.00176012
0.0016925
0.00160993
0.00149114
0.00134075
0.00114253
0.000922195
0.000734155
0.000639969
0.000700077
0.000966384
0.00134455
0.0017384
0.00207015
0.0022834
-0.00232647
-0.00208767
-0.00189907
-0.00176079
-0.00170914
-0.00176279
-0.00188832
-0.00203503
-0.0022495
-0.00250157
-0.00282984
-0.00318023
-0.00348574
-0.00366156
-0.00370339
-0.00363403
-0.0034523
-0.00317859
-0.00287925
-0.00258962
0.00288899
0.00295571
0.00298256
0.0030021
0.00300811
0.00300967
0.00294433
0.00286861
0.00270499
0.00251646
0.0021928
0.00182483
0.0015137
0.00137594
0.00149516
0.00174855
0.00208306
0.00238646
0.00262104
0.00278619
-0.000465868
-0.0003152
-0.000240217
-0.00019125
-0.000227406
-0.000241765
-0.00030188
-0.000346542
-0.000498721
-0.000689562
-0.00110365
-0.00160715
-0.00204357
-0.00228532
-0.00232062
-0.00214622
-0.0017904
-0.0013802
-0.000995592
-0.000684652
0.00200244
0.0021064
0.00215857
0.00220562
0.00220282
0.00219355
0.00211148
0.00204115
0.00184806
0.00162888
0.00112371
0.000592288
0.00020991
0.000134428
0.000335659
0.000686898
0.00106465
0.00139531
0.00166302
0.0018648
5.11615e-05
9.71866e-05
0.000102623
0.000108084
8.60575e-05
0.000108344
7.82023e-05
7.13295e-05
-7.30462e-05
-0.000278087
-0.000871012
-0.00150375
-0.00191195
-0.0019856
-0.00170587
-0.00126113
-0.000804932
-0.000446548
-0.000191605
-3.26534e-05
0.00124046
0.00131175
0.00134521
0.00137992
0.00135606
0.00134261
0.00126617
0.00120067
0.00101484
0.000767389
0.000125758
-0.00046174
-0.000722569
-0.000553392
-0.000174637
0.000225449
0.000581984
0.000836005
0.00102321
0.00115215
0.000166074
0.000177131
0.000165532
0.000167299
0.000159943
0.000184157
0.00016427
0.0001593
3.74315e-05
-0.000181641
-0.000853044
-0.00147911
-0.0016845
-0.00143107
-0.000961519
-0.000557147
-0.000234547
-4.20203e-05
8.04567e-05
0.000141675
0.000733858
0.000774469
0.000791036
0.000807035
0.000784549
0.00076943
0.000709966
0.00065495
0.000512319
0.00028659
-0.000332843
-0.000831968
-0.000836803
-0.000542549
-0.000129937
0.000161706
0.000389623
0.000520344
0.000620613
0.000685576
0.000173679
0.000178093
0.000168285
0.000174369
0.000169109
0.000187422
0.000172822
0.000176637
9.55557e-05
-4.88936e-05
-0.000619518
-0.00114508
-0.00108227
-0.000783156
-0.000404041
-0.00017401
1.28412e-06
8.26847e-05
0.000141043
0.000164409
0.00043079
0.00045191
0.000458006
0.000464364
0.000445348
0.000432391
0.0003888
0.000352651
0.00026189
0.000135681
-0.000325836
-0.000614385
-0.000499798
-0.000234617
3.38924e-05
0.00016816
0.000279334
0.000327479
0.000376939
0.000405704
0.000152276
0.000157248
0.00015255
0.000160129
0.00015552
0.000171067
0.000161932
0.000188283
0.000153936
0.000178745
-0.000198937
-0.000571121
-0.000483919
-0.000324262
-0.000116857
-2.66318e-05
6.38523e-05
9.58899e-05
0.000131391
0.000143883
0.000258813
0.000269528
0.000270351
0.000272818
0.000256629
0.00024655
0.000213713
0.000194891
0.000148337
0.000139337
-8.17121e-05
-0.00019698
-0.00012389
-9.33557e-06
0.000111208
0.000141733
0.00019259
0.000204844
0.000232449
0.00024498
0.000125122
0.000131073
0.000130014
0.000137258
0.00013345
0.000147084
0.000142831
0.00018387
0.000190411
0.00036425
0.000228601
-0.000145883
-0.00015376
-0.00013926
-4.86484e-05
-1.15444e-05
5.28324e-05
7.3734e-05
0.000104327
0.000115274
0.000164042
0.000169791
0.00016858
0.000169351
0.000155724
0.000147372
0.000120489
0.000107949
7.66873e-05
0.000143588
0.000250957
8.26634e-06
-2.319e-05
-1.55562e-05
5.33982e-05
6.66252e-05
0.000113437
0.00012408
0.000147178
0.000154824
0.000101063
0.000106651
0.000107165
0.000112931
0.000109689
0.000119229
0.000115563
0.000140507
0.000129898
0.000185543
0.00010898
-6.06378e-05
-5.45018e-05
-7.60166e-05
-1.514e-05
-5.01741e-06
4.16338e-05
5.59778e-05
8.18748e-05
9.13419e-05
0.000112965
0.000115963
0.000114261
0.000114264
0.000103275
9.61544e-05
7.5162e-05
6.22208e-05
4.06586e-05
4.26752e-05
7.50248e-05
4.60107e-06
2.90268e-05
2.13536e-05
6.11486e-05
5.76265e-05
8.58526e-05
8.75973e-05
0.000103194
0.000106835
8.27368e-05
8.69554e-05
8.77502e-05
9.16771e-05
8.8707e-05
9.43793e-05
9.16468e-05
0.000103808
9.65109e-05
0.000106146
6.3686e-05
-2.53871e-05
-1.70849e-05
-4.11065e-05
1.83911e-07
3.19874e-06
3.75231e-05
4.6968e-05
6.72858e-05
7.44036e-05
8.50292e-05
8.64674e-05
8.49609e-05
8.45817e-05
7.60823e-05
7.02766e-05
5.46299e-05
4.2698e-05
2.69847e-05
1.69116e-05
3.0998e-05
9.01953e-06
3.96003e-05
3.09489e-05
5.89862e-05
5.12017e-05
6.98374e-05
6.83235e-05
7.91483e-05
8.06904e-05
6.99291e-05
7.24594e-05
7.30626e-05
7.53181e-05
7.22589e-05
7.50856e-05
7.26902e-05
7.72668e-05
7.36074e-05
7.0071e-05
4.90285e-05
-5.27606e-06
7.7803e-07
-1.93077e-05
9.76025e-06
1.07296e-05
3.62875e-05
4.28244e-05
5.83406e-05
6.31376e-05
6.92625e-05
6.96638e-05
6.86613e-05
6.80741e-05
6.16354e-05
5.72345e-05
4.60033e-05
3.59032e-05
2.55983e-05
1.41961e-05
2.27694e-05
1.41843e-05
4.08118e-05
3.29733e-05
5.37444e-05
4.63057e-05
5.94696e-05
5.7514e-05
6.54074e-05
6.5943e-05
6.15568e-05
6.23732e-05
6.28736e-05
6.37373e-05
6.05903e-05
6.14683e-05
5.9001e-05
5.90978e-05
5.81273e-05
5.02588e-05
4.19582e-05
6.45837e-06
1.26348e-05
-2.6501e-06
1.85058e-05
1.86226e-05
3.72309e-05
4.18326e-05
5.32739e-05
5.6113e-05
6.0331e-05
5.9611e-05
5.92779e-05
5.84195e-05
5.33063e-05
5.01147e-05
4.2936e-05
3.40591e-05
2.87124e-05
1.77443e-05
2.48712e-05
1.84177e-05
3.9657e-05
3.21778e-05
4.8438e-05
4.28914e-05
5.25041e-05
5.1351e-05
5.73232e-05
5.71358e-05
5.63899e-05
5.55139e-05
5.62719e-05
5.6129e-05
5.27463e-05
5.2609e-05
5.00774e-05
4.72204e-05
4.82761e-05
3.90057e-05
3.80742e-05
1.40459e-05
2.17508e-05
1.0223e-05
2.61309e-05
2.60245e-05
3.89497e-05
4.24397e-05
5.06308e-05
5.17542e-05
5.5209e-05
5.32503e-05
5.3735e-05
5.24011e-05
4.81326e-05
4.63165e-05
4.13732e-05
3.35992e-05
3.28493e-05
2.13329e-05
2.94494e-05
2.10112e-05
3.84146e-05
3.1347e-05
4.41255e-05
4.08558e-05
4.79005e-05
4.80039e-05
5.24147e-05
5.16595e-05
5.31066e-05
5.09995e-05
5.24088e-05
5.10602e-05
4.78583e-05
4.7298e-05
4.51541e-05
3.98683e-05
4.27893e-05
3.25808e-05
3.68808e-05
1.9316e-05
2.88141e-05
1.90512e-05
3.19919e-05
3.19069e-05
4.06553e-05
4.37581e-05
4.90442e-05
4.91727e-05
5.24345e-05
4.85408e-05
5.05223e-05
4.86589e-05
4.45072e-05
4.37683e-05
4.04335e-05
3.2879e-05
3.59093e-05
2.36831e-05
3.33526e-05
2.27539e-05
3.8111e-05
3.07177e-05
4.15772e-05
4.02031e-05
4.45893e-05
4.64389e-05
4.95688e-05
4.80177e-05
5.18709e-05
4.76702e-05
5.03787e-05
4.77873e-05
4.419e-05
4.49456e-05
4.2203e-05
3.53557e-05
4.14331e-05
2.84851e-05
3.79878e-05
2.18502e-05
3.40555e-05
2.50802e-05
3.56469e-05
3.66513e-05
4.16071e-05
4.52712e-05
4.80254e-05
4.69445e-05
5.04295e-05
4.50552e-05
4.89039e-05
4.57143e-05
4.18972e-05
4.23709e-05
4.00073e-05
3.09837e-05
3.82431e-05
2.40108e-05
3.66143e-05
2.32706e-05
3.89483e-05
2.97661e-05
3.99951e-05
4.00846e-05
4.24011e-05
4.60674e-05
4.72457e-05
4.5552e-05
5.1671e-05
4.4051e-05
4.96547e-05
4.63357e-05
4.11996e-05
4.34468e-05
4.08863e-05
3.21429e-05
4.17818e-05
2.58037e-05
3.99536e-05
2.29908e-05
3.79918e-05
2.80923e-05
3.83132e-05
4.02181e-05
4.09019e-05
4.68066e-05
4.79247e-05
4.48834e-05
4.98425e-05
4.14184e-05
4.81986e-05
4.37347e-05
3.8683e-05
4.22645e-05
3.93574e-05
2.8376e-05
4.08327e-05
2.18844e-05
3.99597e-05
2.17556e-05
3.99516e-05
2.85728e-05
3.84887e-05
4.08349e-05
3.99749e-05
4.62978e-05
4.54856e-05
4.2474e-05
5.16431e-05
4.11417e-05
4.99703e-05
4.4466e-05
3.84018e-05
4.36395e-05
4.00384e-05
2.84442e-05
4.34359e-05
2.27463e-05
4.27347e-05
2.2208e-05
4.15275e-05
2.85612e-05
3.92428e-05
4.25667e-05
3.99507e-05
4.84502e-05
4.67702e-05
4.27315e-05
5.03945e-05
3.63667e-05
4.85321e-05
4.26207e-05
3.37812e-05
4.32763e-05
3.8613e-05
2.40509e-05
4.33174e-05
1.79523e-05
4.3003e-05
1.85682e-05
4.15631e-05
2.58479e-05
3.6676e-05
4.2317e-05
3.59688e-05
4.70223e-05
4.41806e-05
3.79251e-05
5.20805e-05
3.69417e-05
5.12448e-05
4.28203e-05
3.44983e-05
4.5215e-05
3.90382e-05
2.34571e-05
4.66066e-05
1.7696e-05
4.65875e-05
1.85426e-05
4.4719e-05
2.631e-05
3.90293e-05
4.43557e-05
3.70481e-05
5.03689e-05
4.51976e-05
3.94586e-05
5.09427e-05
2.99685e-05
5.05027e-05
4.0347e-05
2.7205e-05
4.58314e-05
3.74209e-05
1.66296e-05
4.6925e-05
1.07567e-05
4.69163e-05
1.21823e-05
4.38966e-05
2.03401e-05
3.41258e-05
4.33266e-05
3.04344e-05
4.87888e-05
4.13105e-05
3.20312e-05
5.35503e-05
3.05511e-05
5.37272e-05
4.06432e-05
2.751e-05
4.83641e-05
3.74175e-05
1.63181e-05
5.03302e-05
1.03728e-05
5.05618e-05
1.21133e-05
4.75233e-05
2.05274e-05
3.75069e-05
4.63847e-05
3.14168e-05
5.26952e-05
4.25794e-05
3.33733e-05
5.28885e-05
1.81329e-05
5.56062e-05
3.79479e-05
1.4463e-05
5.21259e-05
3.57524e-05
2.22341e-06
5.36814e-05
-2.92777e-06
5.35702e-05
-6.46417e-07
4.84627e-05
8.46996e-06
2.96483e-05
4.59327e-05
1.92809e-05
5.28831e-05
3.77061e-05
2.11857e-05
5.49396e-05
1.97886e-05
5.82903e-05
3.63937e-05
1.59379e-05
5.44799e-05
3.39348e-05
3.62287e-06
5.56404e-05
-2.12402e-06
5.5536e-05
3.14214e-07
5.06446e-05
9.343e-06
3.37623e-05
4.74914e-05
2.09494e-05
5.60649e-05
3.70824e-05
2.33589e-05
5.81907e-05
-4.67189e-06
6.8554e-05
3.12845e-05
-1.27666e-05
6.84389e-05
3.04633e-05
-2.72071e-05
6.68137e-05
-3.00312e-05
6.5545e-05
-2.66396e-05
5.74479e-05
-1.69107e-05
2.15809e-05
5.17462e-05
-3.08686e-06
6.33866e-05
2.91298e-05
-1.26779e-06
-0.0134246
-0.0128736
-0.0124227
-0.0120935
-0.0118996
-0.0118696
-0.0120208
-0.0123319
-0.0127925
-0.0133676
-0.0140221
-0.0146884
-0.0152848
-0.0157165
-0.0159159
-0.0158901
-0.0156529
-0.0152239
-0.0146613
-0.0140386
0.00197938
0.00203223
0.00196139
0.00182348
0.0016639
0.00154761
0.00141262
0.00124017
0.00100851
0.000727189
0.000384206
1.89631e-05
-0.000292925
-0.000467182
-0.000424506
-0.000113038
0.000367782
0.000904752
0.00139808
0.00176983
-0.00272773
-0.00241621
-0.00219663
-0.00205896
-0.0020424
-0.00214724
-0.00234169
-0.00257805
-0.00290905
-0.00330282
-0.0038004
-0.00432354
-0.00477014
-0.0050156
-0.00504929
-0.00487247
-0.00451598
-0.00404224
-0.00355325
-0.00310624
0.00336086
0.00344149
0.00346272
0.00346777
0.00344645
0.00340432
0.00328026
0.00312752
0.00285232
0.00252012
0.00200865
0.00145577
0.00102411
0.000881944
0.00112514
0.00156584
0.00210965
0.00259652
0.00296649
0.00321623
-0.000293506
-0.00013144
-5.80282e-05
-1.92704e-05
-7.84937e-05
-0.000117783
-0.000225983
-0.000336885
-0.000600226
-0.000945734
-0.00157983
-0.00229081
-0.00282706
-0.00304087
-0.00291845
-0.00252785
-0.00196556
-0.00139675
-0.000909417
-0.000540371
0.00245131
0.00257301
0.00263092
0.00267919
0.0026576
0.00262536
0.00249502
0.00235964
0.00205164
0.00166874
0.000920312
0.000192535
-0.000244289
-0.000201562
0.000192547
0.000741235
0.00127458
0.00170983
0.00204391
0.0022876
0.000277461
0.00033756
0.000346233
0.000350193
0.000318842
0.000327549
0.000260059
0.000199972
-5.29553e-05
-0.000424478
-0.00128266
-0.00210628
-0.00253456
-0.00245975
-0.0019762
-0.00135384
-0.000769367
-0.000329655
-2.15969e-05
0.000172138
0.00156454
0.00165454
0.00169536
0.00173295
0.00169677
0.00166749
0.00155231
0.00143308
0.00114043
0.000724728
-0.000186229
-0.000934515
-0.00115497
-0.000828383
-0.000261634
0.000276169
0.00073139
0.00105034
0.00128617
0.00145086
0.000359243
0.000382158
0.000372985
0.000377327
0.000362092
0.000377895
0.000328873
0.000282011
6.64172e-05
-0.000312826
-0.00125468
-0.00202527
-0.00215489
-0.00173414
-0.00109565
-0.000578758
-0.000175257
6.87804e-05
0.000230111
0.000317784
0.000954153
0.00100758
0.00102823
0.0010458
0.00101423
0.000988611
0.000900355
0.000805524
0.000578139
0.000205183
-0.000667549
-0.00126994
-0.00117423
-0.000727376
-0.000177353
0.000198847
0.000491558
0.000664064
0.00079896
0.000888426
0.000321341
0.000333972
0.000325476
0.000334122
0.000322663
0.000336043
0.00030075
0.000277675
0.000128793
-0.00013744
-0.000940333
-0.00155077
-0.00137527
-0.000947346
-0.000456054
-0.000163301
6.32566e-05
0.000175347
0.000260112
0.000300519
0.000578402
0.000607414
0.000615219
0.0006228
0.000596723
0.000577352
0.000514197
0.000454128
0.000308001
8.25788e-05
-0.0005746
-0.000902243
-0.000684771
-0.000317836
3.31045e-05
0.000208601
0.000358147
0.000428306
0.000499554
0.000542591
0.000260642
0.000271381
0.000267517
0.000277335
0.000268014
0.000281697
0.000259652
0.00027568
0.000203338
0.000168642
-0.00037254
-0.00078663
-0.00061419
-0.000387785
-0.000118313
-1.46474e-06
0.000119788
0.000167873
0.000221102
0.000244201
0.000359202
0.000374923
0.000376346
0.000379917
0.000358206
0.000344613
0.000299013
0.000269738
0.000194892
0.00014307
-0.000191049
-0.00032046
-0.000182858
-2.51064e-05
0.000135949
0.000179682
0.000252902
0.000275551
0.000317499
0.000338388
0.00020426
0.000214464
0.000214036
0.000223211
0.000215806
0.00022946
0.000217692
0.00025959
0.000252025
0.000421759
0.0002048
-0.00022697
-0.000192644
-0.000161104
-3.71068e-05
9.50979e-06
9.56069e-05
0.000125999
0.000170079
0.000188274
0.000234943
0.000244087
0.00024304
0.000244753
0.00022668
0.000216294
0.00018033
0.000163962
0.000118601
0.000185965
0.000271891
-3.07216e-05
-4.12155e-05
-2.54806e-05
7.01097e-05
9.01828e-05
0.000155581
0.000173089
0.000207419
0.000220636
0.000160214
0.000168914
0.00016986
0.00017713
0.000170973
0.000180827
0.000171884
0.000198468
0.000178795
0.000238673
0.000132399
-8.75553e-05
-6.84439e-05
-9.14947e-05
-6.67353e-06
8.33347e-06
7.30378e-05
9.41567e-05
0.000130985
0.000145673
0.000165894
0.000171192
0.000169468
0.000170174
0.000155569
0.00014698
0.00011911
0.000103308
7.25452e-05
7.31678e-05
9.69986e-05
-5.57501e-06
3.06798e-05
2.02143e-05
7.83675e-05
7.65417e-05
0.000118738
0.000124461
0.000148638
0.000155961
0.000128943
0.000135274
0.00013629
0.000141234
0.000135782
0.000141511
0.000134785
0.000147139
0.000133874
0.000142207
8.58353e-05
-3.33735e-05
-1.68769e-05
-4.67925e-05
1.13192e-05
1.60677e-05
6.39735e-05
7.76213e-05
0.000106284
0.00011693
0.000127059
0.00012995
0.000128339
0.000128392
0.000116947
0.000109947
8.9104e-05
7.43303e-05
5.22425e-05
3.81953e-05
4.81868e-05
9.69956e-06
5.0227e-05
3.6696e-05
7.79321e-05
6.94538e-05
9.82469e-05
9.87896e-05
0.000115994
0.000119863
0.000108009
0.000111781
0.000112452
0.000115264
0.000110003
0.000112594
0.000107045
0.000110664
0.000103172
9.59535e-05
6.83273e-05
-4.20402e-06
8.41482e-06
-1.75623e-05
2.38228e-05
2.50024e-05
6.06121e-05
6.96817e-05
9.14083e-05
9.84282e-05
0.000104687
0.000105823
0.000104724
0.000104295
9.54239e-05
9.00476e-05
7.49547e-05
6.20907e-05
4.77329e-05
3.1662e-05
3.88097e-05
2.05323e-05
5.55302e-05
4.29388e-05
7.35577e-05
6.47761e-05
8.54313e-05
8.46063e-05
9.72449e-05
9.91665e-05
9.4669e-05
9.59439e-05
9.64835e-05
9.74931e-05
9.23421e-05
9.28065e-05
8.78036e-05
8.62221e-05
8.30849e-05
7.08798e-05
6.01421e-05
1.28932e-05
2.48777e-05
4.61044e-06
3.50588e-05
3.48145e-05
6.07734e-05
6.69735e-05
8.2955e-05
8.70466e-05
9.18207e-05
9.11388e-05
9.08311e-05
8.9842e-05
8.26255e-05
7.86763e-05
6.87243e-05
5.71234e-05
4.97034e-05
3.40291e-05
4.15938e-05
2.82393e-05
5.65417e-05
4.48232e-05
6.87462e-05
6.19977e-05
7.71425e-05
7.68059e-05
8.6284e-05
8.67751e-05
8.65589e-05
8.53887e-05
8.63325e-05
8.59649e-05
8.06888e-05
8.01391e-05
7.55578e-05
7.05129e-05
7.08397e-05
5.70224e-05
5.63087e-05
2.40018e-05
3.72593e-05
2.15602e-05
4.46898e-05
4.416e-05
6.23197e-05
6.70037e-05
7.84306e-05
8.00589e-05
8.44133e-05
8.1777e-05
8.25666e-05
8.07634e-05
7.45794e-05
7.231e-05
6.52956e-05
5.47526e-05
5.36906e-05
3.73077e-05
4.74585e-05
3.30568e-05
5.67882e-05
4.59119e-05
6.48641e-05
6.08431e-05
7.18718e-05
7.28483e-05
7.97429e-05
7.91096e-05
8.15852e-05
7.84351e-05
8.04021e-05
7.84032e-05
7.33776e-05
7.2594e-05
6.87914e-05
6.08186e-05
6.44086e-05
4.92917e-05
5.58813e-05
3.16215e-05
4.67846e-05
3.32096e-05
5.20553e-05
5.17508e-05
6.40547e-05
6.8362e-05
7.57824e-05
7.58593e-05
8.04063e-05
7.49551e-05
7.78021e-05
7.50686e-05
6.90011e-05
6.82324e-05
6.32628e-05
5.26574e-05
5.70457e-05
3.94524e-05
5.27288e-05
3.61941e-05
5.77921e-05
4.66506e-05
6.27854e-05
6.1204e-05
6.81605e-05
7.12665e-05
7.59788e-05
7.40351e-05
7.95341e-05
7.33239e-05
7.72795e-05
7.35352e-05
6.79945e-05
6.90927e-05
6.48207e-05
5.47147e-05
6.31333e-05
4.43374e-05
5.81848e-05
3.54477e-05
5.3938e-05
4.10594e-05
5.67097e-05
5.79594e-05
6.49512e-05
7.02364e-05
7.41278e-05
7.24552e-05
7.77618e-05
6.97993e-05
7.54253e-05
7.08062e-05
6.49115e-05
6.60496e-05
6.22241e-05
4.94653e-05
5.99839e-05
3.9262e-05
5.73751e-05
3.73224e-05
5.9891e-05
4.64639e-05
6.1576e-05
6.20525e-05
6.55828e-05
7.12128e-05
7.30274e-05
7.04708e-05
7.90454e-05
6.80629e-05
7.61264e-05
7.11034e-05
6.35598e-05
6.70747e-05
6.29689e-05
5.01042e-05
6.41033e-05
4.07492e-05
6.15287e-05
3.70065e-05
5.94218e-05
4.4902e-05
5.99971e-05
6.27378e-05
6.38309e-05
7.22996e-05
7.36355e-05
6.93208e-05
7.70036e-05
6.4507e-05
7.45025e-05
6.7901e-05
6.01909e-05
6.57798e-05
6.11453e-05
4.53845e-05
6.34961e-05
3.60218e-05
6.21941e-05
3.55217e-05
6.20498e-05
4.53639e-05
6.01639e-05
6.37161e-05
6.24591e-05
7.19264e-05
7.07212e-05
6.61598e-05
7.90293e-05
6.34794e-05
7.65286e-05
6.83957e-05
5.9189e-05
6.73943e-05
6.17253e-05
4.46813e-05
6.67716e-05
3.62676e-05
6.58421e-05
3.56581e-05
6.43362e-05
4.52256e-05
6.10393e-05
6.60588e-05
6.20788e-05
7.45942e-05
7.19359e-05
6.58816e-05
7.77095e-05
5.74102e-05
7.51114e-05
6.60369e-05
5.33271e-05
6.72189e-05
5.99834e-05
3.89945e-05
6.71697e-05
3.02072e-05
6.67985e-05
3.10731e-05
6.48175e-05
4.17826e-05
5.80468e-05
6.60425e-05
5.71139e-05
7.32717e-05
6.87617e-05
5.99069e-05
7.97039e-05
5.70752e-05
7.83921e-05
6.59218e-05
5.31384e-05
6.97216e-05
6.02439e-05
3.72316e-05
7.13811e-05
2.88503e-05
7.14519e-05
3.02123e-05
6.88305e-05
4.16629e-05
6.04531e-05
6.86569e-05
5.75941e-05
7.73292e-05
6.95502e-05
6.07641e-05
7.85696e-05
4.82964e-05
7.79667e-05
6.28037e-05
4.39928e-05
7.0904e-05
5.82121e-05
2.84583e-05
7.24016e-05
1.99668e-05
7.25367e-05
2.21219e-05
6.83753e-05
3.4131e-05
5.46983e-05
6.77439e-05
4.93687e-05
7.59236e-05
6.47634e-05
5.15965e-05
8.16753e-05
4.75583e-05
8.20951e-05
6.26841e-05
4.28502e-05
7.44139e-05
5.78826e-05
2.64556e-05
7.69596e-05
1.793e-05
7.74074e-05
2.06094e-05
7.29621e-05
3.30687e-05
5.79906e-05
7.14922e-05
4.92521e-05
8.07525e-05
6.56337e-05
5.18226e-05
8.11092e-05
3.24397e-05
8.48355e-05
5.92078e-05
2.69527e-05
7.94449e-05
5.56867e-05
9.22787e-06
8.14977e-05
1.60295e-06
8.15374e-05
4.99726e-06
7.44759e-05
1.83127e-05
4.87492e-05
7.11901e-05
3.45378e-05
8.14152e-05
5.95268e-05
3.70708e-05
8.36974e-05
3.25466e-05
8.86831e-05
5.69177e-05
2.66355e-05
8.31665e-05
5.32228e-05
8.61774e-06
8.46708e-05
4.31262e-07
8.4691e-05
4.12662e-06
7.75684e-05
1.74669e-05
5.26673e-05
7.33524e-05
3.4759e-05
8.56523e-05
5.81247e-05
3.78404e-05
8.72703e-05
4.7989e-06
0.000100676
5.08146e-05
-5.84998e-06
9.95078e-05
4.91001e-05
-2.62885e-05
9.77246e-05
-3.12445e-05
9.63908e-05
-2.64474e-05
8.53685e-05
-1.23667e-05
3.87218e-05
7.81506e-05
7.53468e-06
9.40456e-05
4.85746e-05
1.00381e-05
-0.0148266
-0.0141992
-0.0136835
-0.0133064
-0.0130901
-0.0130704
-0.0132554
-0.0136233
-0.0141608
-0.0148258
-0.0155748
-0.0163294
-0.0169972
-0.0174735
-0.0176862
-0.0176433
-0.0173615
-0.0168677
-0.0162279
-0.0155225
0.00147162
0.00157659
0.00154279
0.00142584
0.00127587
0.00115125
0.000975934
0.000745907
0.00043857
6.97035e-05
-0.00036722
-0.000820882
-0.00120088
-0.00141052
-0.00136008
-0.00100549
-0.000456341
0.000164114
0.000743611
0.00119503
-0.00307937
-0.00271907
-0.00247604
-0.00233477
-0.00234223
-0.0024805
-0.00272271
-0.00302386
-0.00343888
-0.0039299