/*--------------------------------*- C++ -*----------------------------------*\
| =========                 |                                                 |
| \\      /  F ield         | OpenFOAM: The Open Source CFD Toolbox           |
|  \\    /   O peration     | Version:  2.4.0                                 |
|   \\  /    A nd           | Web:      www.OpenFOAM.org                      |
|    \\/     M anipulation  |                                                 |
\*---------------------------------------------------------------------------*/
FoamFile
{
    version     2.0;
    format      ascii;
    class       volScalarField;
    location    "650";
    object      p;
}
// * * * * * * * * * * * * * * * * * * * * * * * * * * * * * * * * * * * * * //

dimensions      [0 2 -2 0 0 0 0];

internalField   nonuniform List<scalar> 
283312
(
-0.00626976
-0.00632799
-0.00656753
-0.0069084
-0.00726264
-0.00756105
-0.00779547
-0.00796039
-0.00808794
-0.00820139
-0.00832079
-0.00843266
-0.00850496
-0.00848194
-0.00833049
-0.00805778
-0.00767458
-0.0072179
-0.00676914
-0.00642664
0.00215304
0.00164905
0.00122071
0.000949317
0.000848026
0.00091186
0.00105348
0.00119347
0.00130362
0.00139134
0.00145892
0.00153808
0.00166687
0.00186792
0.0021545
0.00252558
0.00284278
0.00299604
0.00292136
0.00261717
-0.00230083
-0.00215174
-0.00193003
-0.00169107
-0.00149979
-0.0014038
-0.00138654
-0.00139421
-0.00144484
-0.00148828
-0.00152025
-0.00149984
-0.00142784
-0.00132603
-0.00127674
-0.00137922
-0.00161514
-0.0019058
-0.00216622
-0.00230979
0.00148386
0.0016553
0.00179834
0.00191273
0.00199556
0.00206396
0.00207049
0.00207639
0.00204249
0.00205233
0.0020687
0.00211616
0.00214703
0.00210893
0.00198648
0.00174992
0.00150253
0.00131966
0.00126415
0.00133653
-0.000744067
-0.000546435
-0.000430232
-0.000352505
-0.000349736
-0.000337607
-0.000349757
-0.000336802
-0.00036756
-0.000345703
-0.000356147
-0.000412027
-0.000585793
-0.000895935
-0.00131412
-0.00165026
-0.0017422
-0.00160444
-0.00132279
-0.00100902
0.00120489
0.00131407
0.00137168
0.00141709
0.00143069
0.00143788
0.00140324
0.00138991
0.00132512
0.00133392
0.00127648
0.00115177
0.000879295
0.000526122
0.000265068
0.000194636
0.00032134
0.000562119
0.000825889
0.00104856
-0.000150008
-0.000110698
-0.000103954
-9.83333e-05
-0.000109735
-8.47649e-05
-8.52795e-05
-5.68159e-05
-8.85952e-05
-6.48345e-05
-0.000182346
-0.000455258
-0.000865877
-0.00126904
-0.00140013
-0.00124846
-0.000936765
-0.000624531
-0.00038234
-0.00022935
0.000764039
0.000812919
0.000836304
0.000861086
0.000849293
0.00084561
0.000807978
0.000787501
0.000718442
0.000707502
0.000546889
0.00023152
-0.00017322
-0.000362322
-0.000309437
-7.78888e-05
0.000206565
0.000433313
0.000595531
0.000699036
1.3583e-07
1.74505e-06
-9.23942e-06
-1.0929e-05
-1.23723e-05
9.5585e-06
1.14052e-05
3.13322e-05
3.49784e-06
6.60508e-06
-0.000188949
-0.000597238
-0.00100267
-0.00108575
-0.000870722
-0.000579568
-0.000314746
-0.000150328
-5.41799e-05
-1.20388e-05
0.000441916
0.000466405
0.000477129
0.000487559
0.000474692
0.000466276
0.000435827
0.000413485
0.000360099
0.000342697
0.000161457
-0.000210369
-0.000462734
-0.000448536
-0.000215779
9.74917e-06
0.000194599
0.000300045
0.000370887
0.000412526
4.42295e-05
4.21418e-05
3.32199e-05
3.50464e-05
3.42911e-05
4.93481e-05
4.97057e-05
6.6012e-05
4.88459e-05
7.34414e-05
-0.000104185
-0.000535001
-0.000716967
-0.000634396
-0.000390599
-0.000205291
-6.71561e-05
-4.11721e-06
3.28164e-05
4.34453e-05
0.000251186
0.000262904
0.000266684
0.000269806
0.000258623
0.000249851
0.000226247
0.000208642
0.000173238
0.000192176
5.50961e-05
-0.000227747
-0.000332364
-0.000226201
-4.54257e-05
6.89702e-05
0.000154733
0.000191215
0.000221411
0.000237341
5.52036e-05
5.51357e-05
5.06222e-05
5.40524e-05
5.28562e-05
6.41198e-05
6.37581e-05
8.7313e-05
8.39358e-05
0.00019027
7.55056e-05
-0.000272261
-0.000356338
-0.000290634
-0.000145009
-6.32326e-05
4.77773e-06
2.88365e-05
4.8825e-05
5.33989e-05
0.000145654
0.000150814
0.000151001
0.000151285
0.0001415
0.000133707
0.000114549
0.000102378
8.17192e-05
0.000139064
9.81027e-05
-5.16295e-05
-0.000108761
-5.348e-05
3.36756e-05
7.06532e-05
0.000108289
0.000118099
0.000133057
0.000138848
5.29581e-05
5.4657e-05
5.31646e-05
5.67082e-05
5.54983e-05
6.4478e-05
6.47683e-05
9.32978e-05
0.000105264
0.000280156
0.000267025
-5.06558e-05
-0.000137032
-0.000139588
-7.50601e-05
-3.47135e-05
1.12366e-05
2.69896e-05
4.41463e-05
4.90269e-05
8.91165e-05
9.13104e-05
9.00929e-05
8.93014e-05
8.09546e-05
7.40743e-05
5.76992e-05
4.70769e-05
2.90057e-05
8.6076e-05
0.000195901
3.70545e-05
-1.94093e-05
-1.94047e-05
2.15374e-05
3.49305e-05
6.34528e-05
7.02498e-05
8.19804e-05
8.50409e-05
4.63845e-05
4.85735e-05
4.84694e-05
5.1299e-05
5.01929e-05
5.6182e-05
5.59808e-05
7.23542e-05
6.84966e-05
0.000106985
6.64695e-05
-3.07769e-05
-4.01416e-05
-5.48684e-05
-2.08971e-05
-1.19109e-05
1.47785e-05
2.35172e-05
3.72808e-05
4.18363e-05
5.95434e-05
6.02869e-05
5.87818e-05
5.76857e-05
5.09598e-05
4.50853e-05
3.22853e-05
2.18696e-05
9.77343e-06
9.09353e-06
4.07783e-05
9.83154e-06
1.88962e-05
1.65498e-05
3.63682e-05
3.51592e-05
4.91113e-05
4.92256e-05
5.62368e-05
5.71455e-05
3.95868e-05
4.14068e-05
4.169e-05
4.35384e-05
4.24348e-05
4.58673e-05
4.5815e-05
5.38749e-05
5.14657e-05
5.81536e-05
3.35681e-05
-1.54747e-05
-1.68324e-05
-3.05278e-05
-8.36408e-06
-4.55658e-06
1.45914e-05
2.06583e-05
3.16239e-05
3.53766e-05
4.37975e-05
4.38949e-05
4.2602e-05
4.15073e-05
3.63622e-05
3.16348e-05
2.21421e-05
1.32285e-05
4.42246e-06
-2.43793e-06
1.15558e-05
6.41734e-06
2.27486e-05
2.05362e-05
3.41706e-05
3.028e-05
3.89028e-05
3.74299e-05
4.21048e-05
4.21983e-05
3.41214e-05
3.5221e-05
3.5474e-05
3.64246e-05
3.51147e-05
3.67191e-05
3.64952e-05
3.9768e-05
3.90729e-05
3.78457e-05
2.53903e-05
-5.23287e-06
-6.21037e-06
-1.71479e-05
-1.94391e-06
4.36732e-07
1.47178e-05
1.9283e-05
2.78209e-05
3.05384e-05
3.50637e-05
3.48389e-05
3.39456e-05
3.2967e-05
2.91553e-05
2.55998e-05
1.88312e-05
1.17238e-05
5.84323e-06
-9.16688e-07
6.80749e-06
6.97681e-06
2.18229e-05
1.97561e-05
2.98186e-05
2.60932e-05
3.20272e-05
3.05797e-05
3.39897e-05
3.38452e-05
3.02552e-05
3.05459e-05
3.07474e-05
3.09611e-05
2.94889e-05
2.98326e-05
2.91994e-05
2.96649e-05
3.00585e-05
2.61781e-05
2.10647e-05
7.85673e-07
1.06871e-06
-6.94485e-06
3.90324e-06
5.45036e-06
1.58485e-05
1.92375e-05
2.56045e-05
2.73446e-05
3.01486e-05
2.95196e-05
2.90788e-05
2.81553e-05
2.52097e-05
2.26134e-05
1.84069e-05
1.24992e-05
9.31063e-06
3.23408e-06
8.50198e-06
8.23291e-06
2.00091e-05
1.76117e-05
2.55634e-05
2.2896e-05
2.72464e-05
2.64453e-05
2.91236e-05
2.88114e-05
2.77348e-05
2.72064e-05
2.75203e-05
2.72579e-05
2.55557e-05
2.52111e-05
2.42467e-05
2.28781e-05
2.39372e-05
1.92596e-05
1.82228e-05
4.72376e-06
6.75293e-06
9.89909e-07
9.01649e-06
1.00771e-05
1.72713e-05
1.9844e-05
2.44601e-05
2.52724e-05
2.72919e-05
2.61706e-05
2.61937e-05
2.51853e-05
2.28052e-05
2.12054e-05
1.83586e-05
1.35193e-05
1.28521e-05
6.62535e-06
1.1581e-05
9.01777e-06
1.84068e-05
1.58812e-05
2.20742e-05
2.06811e-05
2.39775e-05
2.39814e-05
2.60767e-05
2.56204e-05
2.59872e-05
2.49976e-05
2.55825e-05
2.47122e-05
2.31239e-05
2.24066e-05
2.15321e-05
1.86812e-05
2.02999e-05
1.52309e-05
1.69631e-05
7.57593e-06
1.11372e-05
6.40965e-06
1.29338e-05
1.36543e-05
1.85881e-05
2.0696e-05
2.37138e-05
2.40463e-05
2.56858e-05
2.36324e-05
2.44622e-05
2.33676e-05
2.10906e-05
2.0136e-05
1.8325e-05
1.39514e-05
1.51972e-05
8.86379e-06
1.398e-05
9.66666e-06
1.75659e-05
1.46413e-05
1.99073e-05
1.95019e-05
2.15967e-05
2.26077e-05
2.4278e-05
2.3473e-05
2.53574e-05
2.33728e-05
2.4519e-05
2.30611e-05
2.12423e-05
2.12587e-05
1.98686e-05
1.62316e-05
1.92495e-05
1.27244e-05
1.72018e-05
8.92794e-06
1.42941e-05
1.01885e-05
1.53474e-05
1.64821e-05
1.93826e-05
2.15418e-05
2.32071e-05
2.2878e-05
2.43535e-05
2.18374e-05
2.35264e-05
2.18111e-05
1.99122e-05
1.95136e-05
1.84015e-05
1.3382e-05
1.6723e-05
9.64485e-06
1.5796e-05
9.84255e-06
1.75831e-05
1.35193e-05
1.85189e-05
1.87836e-05
2.01231e-05
2.20018e-05
2.27507e-05
2.20933e-05
2.52464e-05
2.14808e-05
2.4091e-05
2.24895e-05
1.9762e-05
2.03841e-05
1.91918e-05
1.46756e-05
1.9173e-05
1.13478e-05
1.79595e-05
9.72186e-06
1.65638e-05
1.21729e-05
1.71584e-05
1.85363e-05
1.91128e-05
2.23195e-05
2.33084e-05
2.18298e-05
2.38646e-05
1.99623e-05
2.29893e-05
2.07939e-05
1.83055e-05
1.95057e-05
1.8195e-05
1.23464e-05
1.82125e-05
8.8381e-06
1.75628e-05
8.97726e-06
1.77311e-05
1.26212e-05
1.73315e-05
1.87805e-05
1.86729e-05
2.17813e-05
2.16489e-05
2.03577e-05
2.50883e-05
2.02224e-05
2.41769e-05
2.15143e-05
1.85513e-05
2.04119e-05
1.88145e-05
1.29416e-05
1.98372e-05
9.9997e-06
1.92117e-05
9.61844e-06
1.85488e-05
1.27533e-05
1.78828e-05
1.97566e-05
1.89124e-05
2.31184e-05
2.27039e-05
2.08914e-05
2.40708e-05
1.72673e-05
2.29561e-05
2.0382e-05
1.5697e-05
1.9966e-05
1.79255e-05
1.03425e-05
1.93957e-05
7.09815e-06
1.89721e-05
7.42102e-06
1.82884e-05
1.1124e-05
1.61228e-05
1.93847e-05
1.64097e-05
2.18544e-05
2.10101e-05
1.78056e-05
2.51531e-05
1.8346e-05
2.46813e-05
2.07505e-05
1.68884e-05
2.10921e-05
1.83925e-05
1.06946e-05
2.13679e-05
7.71508e-06
2.10968e-05
8.04796e-06
2.02286e-05
1.19524e-05
1.79764e-05
2.06226e-05
1.77106e-05
2.40068e-05
2.19811e-05
1.94772e-05
2.41563e-05
1.40267e-05
2.37935e-05
1.92362e-05
1.23529e-05
2.11389e-05
1.74371e-05
6.62537e-06
2.11072e-05
3.59172e-06
2.08151e-05
4.23962e-06
1.92917e-05
8.3165e-06
1.46172e-05
1.96852e-05
1.35664e-05
2.25461e-05
1.94878e-05
1.472e-05
2.58203e-05
1.54954e-05
2.56575e-05
1.978e-05
1.36874e-05
2.23956e-05
1.76894e-05
7.65569e-06
2.29515e-05
4.57561e-06
2.28191e-05
5.33127e-06
2.14783e-05
9.46317e-06
1.73875e-05
2.16349e-05
1.52233e-05
2.49636e-05
2.08109e-05
1.66268e-05
2.5089e-05
7.58485e-06
2.63959e-05
1.82535e-05
5.3894e-06
2.4356e-05
1.68448e-05
-1.25149e-06
2.46738e-05
-3.7287e-06
2.43283e-05
-2.66725e-06
2.17188e-05
1.89427e-06
1.20259e-05
2.10875e-05
7.47145e-06
2.46146e-05
1.78272e-05
8.76317e-06
2.62148e-05
1.03383e-05
2.75048e-05
1.76163e-05
8.19877e-06
2.50091e-05
1.59318e-05
1.69218e-06
2.51566e-05
-1.26887e-06
2.4863e-05
-2.00624e-07
2.26545e-05
4.18498e-06
1.55159e-05
2.18277e-05
1.01641e-05
2.6235e-05
1.79925e-05
1.17832e-05
2.82833e-05
-6.76434e-06
3.4072e-05
1.44179e-05
-1.19751e-05
3.40252e-05
1.38326e-05
-1.99368e-05
3.23842e-05
-2.06819e-05
3.13143e-05
-1.89724e-05
2.7052e-05
-1.40781e-05
6.78644e-06
2.45748e-05
-6.66863e-06
3.08995e-05
1.29158e-05
-5.60509e-06
-0.0109869
-0.0105945
-0.0102887
-0.0100774
-0.00996104
-0.00994873
-0.0100698
-0.0103047
-0.0106476
-0.0110743
-0.0115625
-0.012061
-0.0125067
-0.0128216
-0.0129549
-0.0129172
-0.0127164
-0.0123684
-0.0119231
-0.0114435
0.0023262
0.0022803
0.00214921
0.00198782
0.00183382
0.001744
0.00167496
0.00158984
0.00146776
0.00131343
0.00111143
0.000888392
0.000699382
0.000605156
0.000667446
0.000935759
0.00131238
0.00170486
0.0020361
0.00225042
-0.00233643
-0.0021011
-0.00191571
-0.00178006
-0.00173073
-0.00178676
-0.00191445
-0.00206436
-0.0022824
-0.00253853
-0.00286997
-0.00322098
-0.00352358
-0.00369323
-0.00372969
-0.00365453
-0.00346613
-0.00318808
-0.00288643
-0.00259713
0.0029103
0.00297367
0.00299788
0.00301531
0.00302027
0.00302019
0.00295354
0.00287542
0.00270879
0.00251591
0.00218814
0.00181917
0.00151274
0.00138238
0.00150996
0.00176956
0.00210803
0.00241338
0.00264772
0.00281065
-0.000458589
-0.000310903
-0.000238003
-0.000191038
-0.000228555
-0.000244332
-0.000305702
-0.000352607
-0.000508084
-0.000704302
-0.001125
-0.00163086
-0.00205872
-0.00228685
-0.00231016
-0.0021276
-0.00177022
-0.0013623
-0.000981274
-0.0006741
0.00202443
0.00212605
0.00217664
0.00222239
0.00221867
0.00220854
0.00212569
0.00205411
0.00185855
0.00163445
0.00112052
0.00058358
0.00020828
0.000148379
0.000363934
0.000721967
0.00110021
0.00142776
0.00169153
0.00188962
6.0652e-05
0.000104663
0.00010877
0.000112964
9.06049e-05
0.000112616
8.22527e-05
7.50064e-05
-7.18697e-05
-0.000282447
-0.000891029
-0.00153957
-0.00194215
-0.00199609
-0.00169888
-0.00124499
-0.00078664
-0.00042966
-0.000177202
-2.09287e-05
0.00125596
0.00132611
0.00135884
0.00139284
0.00136832
0.00135444
0.00127739
0.00121144
0.00102325
0.000771397
0.00011562
-0.000489579
-0.000756659
-0.000571891
-0.000172674
0.000240293
0.00060166
0.000855767
0.00104165
0.00116894
0.000173771
0.000183599
0.000171166
0.000172267
0.000164775
0.000189049
0.000169172
0.00016438
4.11041e-05
-0.000181159
-0.000863761
-0.00150396
-0.00171872
-0.00145619
-0.00096871
-0.000552348
-0.000224432
-3.10369e-05
9.07519e-05
0.000150615
0.000743459
0.000783616
0.000799917
0.000815484
0.000792685
0.000777401
0.000717495
0.000662397
0.000518167
0.000290328
-0.00033712
-0.000847119
-0.000856245
-0.000556921
-0.000132868
0.00016655
0.000398586
0.000530509
0.000630958
0.000695522
0.000179023
0.000182786
0.000172529
0.000178236
0.000172872
0.000191193
0.000176551
0.000180543
9.87248e-05
-4.70217e-05
-0.000623434
-0.00115688
-0.00109763
-0.000794611
-0.000407468
-0.000171901
6.53498e-06
8.88886e-05
0.00014737
0.000170259
0.000436524
0.00045748
0.000463517
0.000469664
0.000450514
0.000437506
0.00039363
0.000357595
0.00026587
0.000139355
-0.000326243
-0.000619868
-0.000506731
-0.000239628
3.32962e-05
0.000170647
0.000283869
0.000332825
0.000382689
0.000411441
0.000155863
0.0001605
0.000155581
0.000162903
0.000158195
0.00017365
0.000164412
0.000190833
0.000156146
0.000180896
-0.000199741
-0.000575261
-0.000489159
-0.000328003
-0.000117499
-2.51215e-05
6.68802e-05
9.95022e-05
0.000135268
0.000147627
0.000262262
0.000272912
0.000273752
0.000276108
0.000259874
0.000249765
0.00021674
0.00019804
0.000150916
0.000142317
-8.04706e-05
-0.000198059
-0.00012554
-1.03207e-05
0.000111802
0.0001434
0.000195163
0.000207828
0.000235751
0.000248343
0.000127523
0.000133297
0.000132141
0.000139195
0.0001353
0.000148784
0.000144395
0.000185349
0.000191668
0.000365578
0.000228875
-0.000146371
-0.000154564
-0.000139835
-4.82532e-05
-1.03889e-05
5.47061e-05
7.5928e-05
0.000106759
0.000117689
0.000166166
0.000171881
0.000170708
0.000171403
0.000157762
0.00014936
0.000122332
0.000109805
7.80683e-05
0.000145088
0.00025164
8.32952e-06
-2.29414e-05
-1.50766e-05
5.42509e-05
6.77606e-05
0.000114969
0.000125816
0.000149143
0.000156851
0.000102668
0.000108158
0.000108638
0.000114262
0.000110956
0.000120338
0.000116542
0.000141315
0.000130458
0.000185718
0.000108642
-6.10586e-05
-5.50107e-05
-7.62964e-05
-1.48435e-05
-4.36289e-06
4.27453e-05
5.73119e-05
8.34156e-05
9.29068e-05
0.000114307
0.000117281
0.000115617
0.000115551
0.000104558
9.73626e-05
7.62725e-05
6.32579e-05
4.14092e-05
4.33e-05
7.53018e-05
4.57451e-06
2.91013e-05
2.15206e-05
6.1566e-05
5.82077e-05
8.67196e-05
8.86106e-05
0.000104393
0.000108087
8.38026e-05
8.79604e-05
8.87535e-05
9.25739e-05
8.95639e-05
9.5096e-05
9.22682e-05
0.000104266
9.67823e-05
0.000106189
6.34077e-05
-2.57678e-05
-1.74719e-05
-4.13627e-05
2.94156e-07
3.54511e-06
3.81853e-05
4.77839e-05
6.82674e-05
7.54144e-05
8.58904e-05
8.73038e-05
8.58329e-05
8.53892e-05
7.68865e-05
7.09911e-05
5.52832e-05
4.32358e-05
2.73672e-05
1.71086e-05
3.1077e-05
8.91486e-06
3.95658e-05
3.0939e-05
5.91653e-05
5.14828e-05
7.03306e-05
6.89216e-05
7.98931e-05
8.14754e-05
7.06262e-05
7.31125e-05
7.37297e-05
7.59018e-05
7.28211e-05
7.55289e-05
7.3075e-05
7.75059e-05
7.37404e-05
7.00468e-05
4.88341e-05
-5.59377e-06
5.00746e-07
-1.95289e-05
9.78759e-06
1.08986e-05
3.66766e-05
4.3315e-05
5.89598e-05
6.3779e-05
6.98132e-05
7.01871e-05
6.92161e-05
6.85682e-05
6.21275e-05
5.76341e-05
4.63698e-05
3.61419e-05
2.57617e-05
1.41802e-05
2.27222e-05
1.40115e-05
4.07094e-05
3.28657e-05
5.37887e-05
4.6415e-05
5.97407e-05
5.78593e-05
6.58684e-05
6.64294e-05
6.19988e-05
6.27776e-05
6.32993e-05
6.40944e-05
6.09365e-05
6.17133e-05
5.92175e-05
5.91804e-05
5.81688e-05
5.01602e-05
4.18027e-05
6.18064e-06
1.24205e-05
-2.85793e-06
1.84782e-05
1.86756e-05
3.74416e-05
4.21092e-05
5.36509e-05
5.65024e-05
6.06718e-05
5.99204e-05
5.96168e-05
5.87021e-05
5.35867e-05
5.03083e-05
4.31171e-05
3.41119e-05
2.87474e-05
1.76157e-05
2.47573e-05
1.81929e-05
3.95131e-05
3.20106e-05
4.84011e-05
4.28955e-05
5.26342e-05
5.15323e-05
5.75964e-05
5.74205e-05
5.66534e-05
5.57398e-05
5.65232e-05
5.63219e-05
5.29326e-05
5.27092e-05
5.01707e-05
4.71852e-05
4.82484e-05
3.88372e-05
3.79237e-05
1.37759e-05
2.15611e-05
1.00102e-05
2.60585e-05
2.59956e-05
3.9038e-05
4.25706e-05
5.08421e-05
5.19675e-05
5.54031e-05
5.34075e-05
5.39224e-05
5.25367e-05
4.82644e-05
4.63714e-05
4.14317e-05
3.35297e-05
3.28067e-05
2.11326e-05
2.93036e-05
2.07497e-05
3.82479e-05
3.11422e-05
4.40368e-05
4.07908e-05
4.79349e-05
4.80726e-05
5.25577e-05
5.18013e-05
5.32439e-05
5.10947e-05
5.25336e-05
5.11334e-05
4.79243e-05
4.72918e-05
4.51562e-05
3.97415e-05
4.2711e-05
3.23522e-05
3.67224e-05
1.90318e-05
2.86294e-05
1.88243e-05
3.18825e-05
3.18185e-05
4.0657e-05
4.37876e-05
4.91398e-05
4.92597e-05
5.25243e-05
4.85857e-05
5.0601e-05
4.86909e-05
4.45308e-05
4.37279e-05
4.04085e-05
3.27227e-05
3.58202e-05
2.34295e-05
3.31931e-05
2.24632e-05
3.79327e-05
3.04863e-05
4.1453e-05
4.00895e-05
4.45546e-05
4.6427e-05
4.96187e-05
4.80543e-05
5.19188e-05
4.76675e-05
5.04115e-05
4.77732e-05
4.41636e-05
4.48625e-05
4.21383e-05
3.5156e-05
4.13213e-05
2.82046e-05
3.78221e-05
2.15434e-05
3.38699e-05
2.48318e-05
3.55082e-05
3.65193e-05
4.1546e-05
4.52287e-05
4.80385e-05
4.6938e-05
5.04454e-05
4.50142e-05
4.89048e-05
4.56735e-05
4.18389e-05
4.2266e-05
3.9926e-05
3.076e-05
3.81287e-05
2.3711e-05
3.6452e-05
2.29524e-05
3.87666e-05
2.95111e-05
3.98451e-05
3.99354e-05
4.23141e-05
4.59966e-05
4.72276e-05
4.55082e-05
5.16565e-05
4.39702e-05
4.96212e-05
4.62622e-05
4.11004e-05
4.33101e-05
4.07733e-05
3.18817e-05
4.16524e-05
2.54763e-05
3.97874e-05
2.26549e-05
3.78062e-05
2.78228e-05
3.81526e-05
4.00547e-05
4.07937e-05
4.67129e-05
4.78789e-05
4.48058e-05
4.98069e-05
4.13114e-05
4.81451e-05
4.36412e-05
3.85583e-05
4.21181e-05
3.92391e-05
2.80945e-05
4.07112e-05
2.15398e-05
3.98045e-05
2.14093e-05
3.97729e-05
2.82917e-05
3.83193e-05
4.06594e-05
3.9846e-05
4.61838e-05
4.54174e-05
4.23659e-05
5.15876e-05
4.10059e-05
4.98928e-05
4.43431e-05
3.8242e-05
4.34703e-05
3.98928e-05
2.81273e-05
4.33052e-05
2.23728e-05
4.25783e-05
2.18407e-05
4.13482e-05
2.8267e-05
3.90671e-05
4.23817e-05
3.9806e-05
4.83212e-05
4.66823e-05
4.25978e-05
5.03256e-05
3.62035e-05
4.8444e-05
4.24911e-05
3.35962e-05
4.31093e-05
3.84726e-05
2.37114e-05
4.32064e-05
1.75592e-05
4.28666e-05
1.81866e-05
4.13951e-05
2.5538e-05
3.64922e-05
4.21228e-05
3.5804e-05
4.68771e-05
4.40747e-05
3.77616e-05
5.2002e-05
3.67578e-05
5.11423e-05
4.26672e-05
3.42843e-05
4.50342e-05
3.88734e-05
2.3085e-05
4.64931e-05
1.72731e-05
4.64541e-05
1.81391e-05
4.45552e-05
2.59875e-05
3.88442e-05
4.41578e-05
3.6873e-05
5.02172e-05
4.50802e-05
3.92781e-05
5.08566e-05
2.97502e-05
5.03989e-05
4.01953e-05
2.69546e-05
4.56676e-05
3.72708e-05
1.62198e-05
4.68467e-05
1.03027e-05
4.68156e-05
1.17531e-05
4.37504e-05
1.99931e-05
3.39315e-05
4.31219e-05
3.02348e-05
4.86231e-05
4.1176e-05
3.18142e-05
5.34646e-05
3.03221e-05
5.36184e-05
4.04744e-05
2.72396e-05
4.81958e-05
3.72457e-05
1.58834e-05
5.02563e-05
9.89214e-06
5.04683e-05
1.16644e-05
4.73864e-05
2.017e-05
3.73176e-05
4.61821e-05
3.12129e-05
5.25319e-05
4.24415e-05
3.3148e-05
5.2802e-05
1.78504e-05
5.55115e-05
3.77867e-05
1.41226e-05
5.20016e-05
3.56042e-05
1.7091e-06
5.36728e-05
-3.47119e-06
5.3535e-05
-1.14828e-06
4.83603e-05
8.06738e-06
2.94482e-05
4.57284e-05
1.90409e-05
5.27089e-05
3.75491e-05
2.09078e-05
5.48607e-05
1.95026e-05
5.81962e-05
3.62214e-05
1.5591e-05
5.43569e-05
3.37688e-05
3.09816e-06
5.56379e-05
-2.68397e-06
5.55074e-05
-2.00098e-07
5.05517e-05
8.93431e-06
3.35719e-05
4.72917e-05
2.07095e-05
5.58988e-05
3.69273e-05
2.30821e-05
5.81345e-05
-5.05538e-06
6.85119e-05
3.11236e-05
-1.32669e-05
6.84306e-05
3.03289e-05
-2.7915e-05
6.69535e-05
-3.07358e-05
6.56388e-05
-2.72751e-05
5.74364e-05
-1.74167e-05
2.13853e-05
5.15623e-05
-3.38971e-06
6.3226e-05
2.89529e-05
-1.63851e-06
-0.0135297
-0.0129808
-0.0125316
-0.012204
-0.0120121
-0.0119858
-0.0121412
-0.0124566
-0.0129213
-0.0134993
-0.0141546
-0.0148184
-0.0154096
-0.0158337
-0.0160271
-0.0159974
-0.0157563
-0.0153252
-0.0147626
-0.0141415
0.00193438
0.00199127
0.00192507
0.00179069
0.00163344
0.00151835
0.00138221
0.00120739
0.000972647
0.000687753
0.000341654
-2.52762e-05
-0.000337019
-0.000510496
-0.000465356
-0.000152148
0.000325966
0.000859905
0.00135105
0.00172256
-0.0027464
-0.00243864
-0.00222236
-0.00208736
-0.00207333
-0.00218082
-0.00237768
-0.00261756
-0.00295221
-0.00334968
-0.00384936
-0.00437148
-0.00481345
-0.00505163
-0.00507941
-0.00489741
-0.00453535
-0.00405835
-0.00356794
-0.00312197
0.00338186
0.00345931
0.00347787
0.00348061
0.00345801
0.00341394
0.00328828
0.00313283
0.00285455
0.00251837
0.00200374
0.0014508
0.0010238
0.000887814
0.00113747
0.00158353
0.00213138
0.00262095
0.00299161
0.00323989
-0.000285178
-0.000126163
-5.51018e-05
-1.88144e-05
-7.96727e-05
-0.000120805
-0.000230607
-0.000344161
-0.000611089
-0.000961834
-0.00160209
-0.00231549
-0.00284474
-0.00304784
-0.00291548
-0.00251676
-0.001951
-0.00138187
-0.000895905
-0.000529293
0.00247796
0.00259717
0.00265322
0.00269986
0.00267697
0.00264353
0.00251211
0.00237512
0.00206421
0.00167624
0.000918566
0.000183559
-0.000249151
-0.000194016
0.000213612
0.000771155
0.00130833
0.00174358
0.00207579
0.0023168
0.000290882
0.000348657
0.000355661
0.000357963
0.00032611
0.000334318
0.000266355
0.000205515
-5.07318e-05
-0.000428875
-0.00130561
-0.00214892
-0.00257549
-0.00248177
-0.0019789
-0.00134313
-0.000752255
-0.000310961
-3.79051e-06
0.000187811
0.00158487
0.00167348
0.00171333
0.00174987
0.00171287
0.00168294
0.00156688
0.00144679
0.00115077
0.000728904
-0.000200174
-0.000970986
-0.00120054
-0.00085782
-0.000266442
0.000288726
0.000752431
0.00107366
0.00130922
0.00147253
0.000370697
0.000392112
0.000381874
0.000385355
0.000369838
0.000385564
0.000336365
0.000289362
7.14575e-05
-0.000312699
-0.00126944
-0.00205863
-0.00219997
-0.00176821
-0.0011077
-0.000574986
-0.000163402
8.29802e-05
0.000244238
0.000330625
0.000967417
0.00102023
0.00104048
0.00105744
0.00102545
0.000999545
0.000910653
0.000815478
0.000585665
0.000209202
-0.000674618
-0.00129121
-0.00120099
-0.000747694
-0.000183046
0.000203776
0.000502625
0.000677392
0.000812939
0.000902088
0.00032951
0.000341334
0.000332267
0.000340402
0.000328763
0.000342063
0.000306599
0.000283515
0.000133293
-0.000135301
-0.000946333
-0.00156715
-0.00139598
-0.000962987
-0.000461251
-0.00016089
7.02744e-05
0.000184068
0.00026929
0.000309256
0.00058665
0.000615419
0.000623109
0.000630377
0.000604112
0.000584628
0.000521069
0.000460996
0.000313399
8.70009e-05
-0.000576045
-0.000910423
-0.000694933
-0.000325336
3.16329e-05
0.000211621
0.000364263
0.000435794
0.000507738
0.000550835
0.000266202
0.00027653
0.000272394
0.000281865
0.000272397
0.000285918
0.00026368
0.000279676
0.000206662
0.000171449
-0.000374015
-0.00079259
-0.000621602
-0.000393158
-0.000119438
5.52772e-07
0.000124087
0.00017317
0.000226895
0.000249913
0.000364332
0.000379953
0.000381379
0.000384777
0.000362993
0.000349324
0.000303456
0.000274249
0.00019854
0.000146877
-0.000189877
-0.000322425
-0.000185644
-2.69218e-05
0.000136441
0.000181886
0.000256547
0.000279915
0.00032238
0.000343395
0.000208012
0.000218004
0.000217463
0.000226386
0.000218863
0.0002323
0.000220327
0.000262058
0.000254079
0.000423664
0.000205031
-0.000227918
-0.000194071
-0.000162122
-3.66734e-05
1.11424e-05
9.83537e-05
0.000129296
0.000173776
0.000192007
0.000238197
0.00024729
0.000246285
0.000247877
0.000229774
0.00021929
0.00018312
0.000166709
0.000120673
0.000188051
0.000272719
-3.08652e-05
-4.12262e-05
-2.51328e-05
7.11404e-05
9.1761e-05
0.000157834
0.000175716
0.000210415
0.000223747
0.000162743
0.000171329
0.000172243
0.000179323
0.000173081
0.000182717
0.000173587
0.000199918
0.000179855
0.00023917
0.000132108
-8.80818e-05
-6.91175e-05
-9.18561e-05
-6.22543e-06
9.34752e-06
7.47336e-05
9.62118e-05
0.000133365
0.000148121
0.000168003
0.000173268
0.000171593
0.000172193
0.000157573
0.00014886
0.000120846
0.000104902
7.37282e-05
7.41052e-05
9.73972e-05
-5.63493e-06
3.0712e-05
2.03875e-05
7.89573e-05
7.74268e-05
0.000120079
0.000126054
0.000150518
0.000157937
0.000130643
0.000136904
0.000137928
0.000142727
0.000137224
0.000142756
0.000135895
0.00014801
0.000134464
0.000142456
8.56138e-05
-3.37906e-05
-1.73123e-05
-4.70604e-05
1.15581e-05
1.66532e-05
6.50203e-05
7.89093e-05
0.000107827
0.000118537
0.000128446
0.000131305
0.000129743
0.000129699
0.000118244
0.000111105
9.017e-05
7.52113e-05
5.28932e-05
3.85524e-05
4.83451e-05
9.58433e-06
5.01884e-05
3.66975e-05
7.82292e-05
6.99286e-05
9.90505e-05
9.97677e-05
0.000117197
0.000121136
0.000109142
0.000112863
0.000113559
0.000116256
0.000110968
0.00011339
0.000107758
0.000111161
0.000103511
9.60475e-05
6.81771e-05
-4.55207e-06
8.11776e-06
-1.7793e-05
2.39382e-05
2.53227e-05
6.12537e-05
7.04823e-05
9.24052e-05
9.94716e-05
0.000105599
0.0001067
0.000105646
0.000105127
9.62507e-05
9.07358e-05
7.5592e-05
6.25337e-05
4.80618e-05
3.17218e-05
3.88051e-05
2.0336e-05
5.5423e-05
4.28252e-05
7.36752e-05
6.50037e-05
8.59051e-05
8.52008e-05
9.80147e-05
9.99817e-05
9.54106e-05
9.66384e-05
9.72124e-05
9.81256e-05
9.29604e-05
9.32792e-05
8.82352e-05
8.64553e-05
8.32539e-05
7.08319e-05
6.00123e-05
1.25782e-05
2.46486e-05
4.38183e-06
3.50848e-05
3.49579e-05
6.11479e-05
6.74519e-05
8.3586e-05
8.77052e-05
9.24084e-05
9.16847e-05
9.14201e-05
9.03486e-05
8.31278e-05
7.90505e-05
6.90785e-05
5.72864e-05
4.98372e-05
3.39204e-05
4.14964e-05
2.79724e-05
5.63847e-05
4.46313e-05
6.87489e-05
6.20682e-05
7.74022e-05
7.71478e-05
8.67641e-05
8.7278e-05
8.70253e-05
8.58051e-05
8.67881e-05
8.63371e-05
8.10523e-05
8.03777e-05
7.57862e-05
7.0551e-05
7.08859e-05
5.68543e-05
5.61654e-05
2.36804e-05
3.70506e-05
2.13126e-05
4.46435e-05
4.4178e-05
6.25101e-05
6.72619e-05
7.88101e-05
8.04476e-05
8.47729e-05
8.20856e-05
8.29197e-05
8.10409e-05
7.4851e-05
7.24689e-05
6.54585e-05
5.47262e-05
5.37016e-05
3.70852e-05
4.7311e-05
3.27346e-05
5.65998e-05
4.56663e-05
6.47899e-05
6.08076e-05
7.19841e-05
7.30154e-05
8.00211e-05
7.93902e-05
8.1856e-05
7.86474e-05
8.06593e-05
7.85859e-05
7.35502e-05
7.26616e-05
6.88709e-05
6.07076e-05
6.43671e-05
4.90244e-05
5.5715e-05
3.12673e-05
4.6574e-05
3.29349e-05
5.19503e-05
5.16775e-05
6.41141e-05
6.84656e-05
7.59851e-05
7.60533e-05
8.0603e-05
7.50878e-05
7.79852e-05
7.51831e-05
6.91031e-05
6.82412e-05
6.32932e-05
5.24936e-05
5.69799e-05
3.91429e-05
5.25553e-05
3.58242e-05
5.75849e-05
4.63641e-05
6.26565e-05
6.10927e-05
6.81658e-05
7.13081e-05
7.61122e-05
7.41516e-05
7.96657e-05
7.33829e-05
7.73923e-05
7.35795e-05
6.80208e-05
6.90371e-05
6.47918e-05
5.44858e-05
6.30336e-05
4.39857e-05
5.8001e-05
3.50533e-05
5.37208e-05
4.0748e-05
5.65583e-05
5.78186e-05
6.49146e-05
7.02294e-05
7.42039e-05
7.25045e-05
7.78425e-05
6.97971e-05
7.5486e-05
7.08051e-05
6.48843e-05
6.59551e-05
6.21634e-05
4.91939e-05
5.98739e-05
3.88768e-05
5.71921e-05
3.69061e-05
5.96759e-05
4.61401e-05
6.14064e-05
6.1885e-05
6.55067e-05
7.11626e-05
7.30551e-05
7.0462e-05
7.90792e-05
6.8001e-05
7.61348e-05
7.1051e-05
6.3471e-05
6.69329e-05
6.28619e-05
4.97768e-05
6.39718e-05
4.03218e-05
6.13398e-05
3.65632e-05
5.92012e-05
4.45559e-05
5.98106e-05
6.25476e-05
6.37215e-05
7.22133e-05
7.362e-05
6.92591e-05
7.70034e-05
6.44013e-05
7.44772e-05
6.78151e-05
6.00592e-05
6.56178e-05
6.10233e-05
4.5021e-05
6.33702e-05
3.55644e-05
6.20173e-05
3.50595e-05
6.18365e-05
4.49981e-05
5.99633e-05
6.35069e-05
6.23182e-05
7.18088e-05
7.06707e-05
6.60511e-05
7.89979e-05
6.33287e-05
7.64671e-05
6.82666e-05
5.90045e-05
6.71995e-05
6.15652e-05
4.4265e-05
6.66341e-05
3.57665e-05
6.56647e-05
3.51643e-05
6.41224e-05
4.48387e-05
6.08277e-05
6.5834e-05
6.19121e-05
7.44521e-05
7.18543e-05
6.57318e-05
7.76566e-05
5.72173e-05
7.5031e-05
6.58924e-05
5.3102e-05
6.70217e-05
5.98233e-05
3.85404e-05
6.70552e-05
2.96733e-05
6.66462e-05
3.05553e-05
6.46177e-05
4.13713e-05
5.78232e-05
6.58039e-05
5.69177e-05
7.31057e-05
6.86529e-05
5.97128e-05
7.96348e-05
5.68476e-05
7.82898e-05
6.5744e-05
5.28681e-05
6.95061e-05
6.00516e-05
3.67276e-05
7.12665e-05
2.82711e-05
7.13067e-05
2.96605e-05
6.86375e-05
4.12303e-05
6.02251e-05
6.84106e-05
5.73793e-05
7.71506e-05
6.94214e-05
6.05399e-05
7.84889e-05
4.80199e-05
7.786e-05
6.26227e-05
4.36697e-05
7.07076e-05
5.80334e-05
2.7899e-05
7.23316e-05
1.93409e-05
7.24339e-05
2.1532e-05
6.82057e-05
3.36634e-05
5.44581e-05
6.74881e-05
4.91198e-05
7.57259e-05
6.46104e-05
5.13216e-05
8.15926e-05
4.7259e-05
8.19807e-05
6.24794e-05
4.24914e-05
7.42144e-05
5.76769e-05
2.58533e-05
7.69016e-05
1.72608e-05
7.73199e-05
1.99866e-05
7.28076e-05
3.25809e-05
5.7754e-05
7.1237e-05
4.89915e-05
8.05542e-05
6.54715e-05
5.15282e-05
8.10254e-05
3.20703e-05
8.47377e-05
5.90092e-05
2.65028e-05
7.92997e-05
5.55069e-05
8.52188e-06
8.15226e-05
8.50411e-07
8.15243e-05
4.30417e-06
7.43657e-05
1.77655e-05
4.84993e-05
7.09326e-05
3.42303e-05
8.12034e-05
5.93394e-05
3.67077e-05
8.36222e-05
3.21635e-05
8.85881e-05
5.67047e-05
2.61648e-05
8.30299e-05
5.30227e-05
7.88425e-06
8.47137e-05
-3.53713e-07
8.46957e-05
3.4081e-06
7.7476e-05
1.69038e-05
5.24275e-05
7.31003e-05
3.44453e-05
8.54487e-05
5.79359e-05
3.74697e-05
8.72218e-05
4.2994e-06
0.000100642
5.06132e-05
-6.50108e-06
9.95071e-05
4.89365e-05
-2.72365e-05
9.79379e-05
-3.22002e-05
9.65426e-05
-2.73096e-05
8.53736e-05
-1.3046e-05
3.84749e-05
7.79165e-05
7.14476e-06
9.38479e-05
4.83577e-05
9.55494e-06
-0.0149497
-0.0143246
-0.0138109
-0.0134356
-0.0132218
-0.0132058
-0.0133949
-0.0137672
-0.0143087
-0.0149764
-0.0157258
-0.0164775
-0.0171394
-0.0176076
-0.017814
-0.017767
-0.0174815
-0.0169859
-0.0163464
-0.015643
0.00141565
0.0015245
0.00149529
0.00138194
0.00123488
0.00111138
0.000935038
0.00070288
0.000392778
2.07031e-05
-0.000418867
-0.000873668
-0.00125306
-0.00146171
-0.0014089
-0.00105284
-0.000506969
0.00010974
0.000686391
0.00113709
-0.00310464
-0.00274852
-0.00250903
-0.00237057
-0.00238094
-0.00252206
-0.00276671