/*--------------------------------*- C++ -*----------------------------------*\
| =========                 |                                                 |
| \\      /  F ield         | OpenFOAM: The Open Source CFD Toolbox           |
|  \\    /   O peration     | Version:  2.4.0                                 |
|   \\  /    A nd           | Web:      www.OpenFOAM.org                      |
|    \\/     M anipulation  |                                                 |
\*---------------------------------------------------------------------------*/
FoamFile
{
    version     2.0;
    format      ascii;
    class       volScalarField;
    location    "580";
    object      p;
}
// * * * * * * * * * * * * * * * * * * * * * * * * * * * * * * * * * * * * * //

dimensions      [0 2 -2 0 0 0 0];

internalField   nonuniform List<scalar> 
283312
(
-0.00626963
-0.00632787
-0.00656741
-0.00690827
-0.00726249
-0.00756087
-0.00779526
-0.00796015
-0.00808767
-0.0082011
-0.0083205
-0.00843237
-0.00850468
-0.00848169
-0.00833027
-0.00805757
-0.00767439
-0.00721773
-0.00676899
-0.0064265
0.00215302
0.00164904
0.00122071
0.000949327
0.000848046
0.000911887
0.00105351
0.0011935
0.00130365
0.00139136
0.00145894
0.0015381
0.00166688
0.00186792
0.00215448
0.00252554
0.00284273
0.00299599
0.00292132
0.00261713
-0.0023008
-0.0021517
-0.00192997
-0.00169101
-0.00149972
-0.00140373
-0.00138647
-0.00139414
-0.00144477
-0.00148821
-0.00152017
-0.00149977
-0.00142778
-0.001326
-0.00127674
-0.00137923
-0.00161517
-0.00190583
-0.00216623
-0.00230978
0.00148384
0.00165528
0.00179832
0.00191271
0.00199553
0.00206393
0.00207046
0.00207636
0.00204246
0.0020523
0.00206867
0.00211612
0.00214697
0.00210883
0.00198636
0.00174979
0.00150242
0.00131958
0.0012641
0.0013365
-0.000744034
-0.000546406
-0.000430207
-0.000352483
-0.000349714
-0.000337585
-0.000349735
-0.000336779
-0.000367535
-0.000345676
-0.000356119
-0.000412011
-0.000585807
-0.000895985
-0.00131419
-0.00165031
-0.00174222
-0.00160442
-0.00132276
-0.00100898
0.00120487
0.00131405
0.00137165
0.00141706
0.00143066
0.00143785
0.00140321
0.00138988
0.00132509
0.00133389
0.00127645
0.00115174
0.000879235
0.000526042
0.000264992
0.000194584
0.000321314
0.000562105
0.000825875
0.00104854
-0.000150001
-0.000110693
-0.00010395
-9.83287e-05
-0.00010973
-8.47606e-05
-8.52757e-05
-5.68127e-05
-8.85914e-05
-6.4828e-05
-0.000182332
-0.000455244
-0.000865876
-0.00126904
-0.00140011
-0.00124843
-0.000936733
-0.000624505
-0.000382323
-0.00022934
0.000764017
0.000812896
0.00083628
0.000861063
0.00084927
0.000845587
0.000807955
0.000787478
0.00071842
0.000707484
0.000546884
0.000231522
-0.000173213
-0.000362314
-0.000309424
-7.78775e-05
0.000206568
0.000433306
0.000595516
0.000699017
1.33681e-07
1.74369e-06
-9.24018e-06
-1.0929e-05
-1.23725e-05
9.55765e-06
1.14037e-05
3.13294e-05
3.49552e-06
6.60621e-06
-0.000188933
-0.00059721
-0.00100263
-0.00108571
-0.000870684
-0.000579543
-0.000314733
-0.000150325
-5.4181e-05
-1.20412e-05
0.000441902
0.000466391
0.000477115
0.000487545
0.000474678
0.000466262
0.000435814
0.000413471
0.000360086
0.000342689
0.000161462
-0.000210349
-0.000462704
-0.000448508
-0.000215762
9.75463e-06
0.000194596
0.000300036
0.000370875
0.000412513
4.42267e-05
4.21398e-05
3.32185e-05
3.50454e-05
3.42899e-05
4.93464e-05
4.97032e-05
6.60085e-05
4.88421e-05
7.34404e-05
-0.000104175
-0.000534976
-0.000716934
-0.000634368
-0.000390584
-0.000205285
-6.71566e-05
-4.12045e-06
3.28124e-05
4.34416e-05
0.000251178
0.000262896
0.000266676
0.000269798
0.000258615
0.000249843
0.000226239
0.000208634
0.00017323
0.00019217
5.50979e-05
-0.000227734
-0.000332348
-0.000226188
-4.54211e-05
6.8969e-05
0.000154728
0.000191208
0.000221404
0.000237333
5.52013e-05
5.51339e-05
5.06207e-05
5.40511e-05
5.28546e-05
6.41179e-05
6.37557e-05
8.731e-05
8.39323e-05
0.000190267
7.55096e-05
-0.00027225
-0.000356326
-0.000290626
-0.000145007
-6.32337e-05
4.77475e-06
2.88331e-05
4.88216e-05
5.33961e-05
0.00014565
0.000150809
0.000150996
0.000151281
0.000141495
0.000133703
0.000114544
0.000102374
8.17151e-05
0.00013906
9.81024e-05
-5.16251e-05
-0.000108757
-5.34791e-05
3.36742e-05
7.06502e-05
0.000108285
0.000118095
0.000133053
0.000138844
5.29564e-05
5.46556e-05
5.31633e-05
5.67071e-05
5.5497e-05
6.44765e-05
6.47664e-05
9.32957e-05
0.000105262
0.000280153
0.000267023
-5.06584e-05
-0.000137032
-0.000139589
-7.50625e-05
-3.47162e-05
1.12337e-05
2.69869e-05
4.41439e-05
4.90249e-05
8.91139e-05
9.13079e-05
9.00904e-05
8.92989e-05
8.09521e-05
7.40717e-05
5.76968e-05
4.70743e-05
2.90038e-05
8.6074e-05
0.0001959
3.70514e-05
-1.94144e-05
-1.94092e-05
2.15346e-05
3.49276e-05
6.345e-05
7.02471e-05
8.19778e-05
8.50383e-05
4.63832e-05
4.85724e-05
4.84685e-05
5.12981e-05
5.01919e-05
5.6181e-05
5.59795e-05
7.23528e-05
6.84952e-05
0.000106984
6.64691e-05
-3.07781e-05
-4.01421e-05
-5.48696e-05
-2.08992e-05
-1.19128e-05
1.47765e-05
2.35153e-05
3.72791e-05
4.18348e-05
5.95417e-05
6.02853e-05
5.87802e-05
5.76841e-05
5.09583e-05
4.50838e-05
3.22839e-05
2.18682e-05
9.77237e-06
9.09236e-06
4.07772e-05
9.8299e-06
1.88937e-05
1.65472e-05
3.63661e-05
3.51573e-05
4.91094e-05
4.92238e-05
5.62351e-05
5.71438e-05
3.95857e-05
4.14059e-05
4.16891e-05
4.35376e-05
4.2434e-05
4.58666e-05
4.58141e-05
5.3874e-05
5.14647e-05
5.81527e-05
3.35677e-05
-1.54752e-05
-1.68327e-05
-3.05287e-05
-8.36536e-06
-4.55799e-06
1.45899e-05
2.06568e-05
3.16225e-05
3.53753e-05
4.37963e-05
4.38937e-05
4.26009e-05
4.15064e-05
3.63612e-05
3.16339e-05
2.21413e-05
1.32277e-05
4.42185e-06
-2.43862e-06
1.15549e-05
6.4161e-06
2.27469e-05
2.05346e-05
3.41691e-05
3.02786e-05
3.89015e-05
3.74286e-05
4.21035e-05
4.2197e-05
3.41204e-05
3.52202e-05
3.54733e-05
3.6424e-05
3.51141e-05
3.67185e-05
3.64946e-05
3.97674e-05
3.90722e-05
3.7845e-05
2.53899e-05
-5.23327e-06
-6.21082e-06
-1.71487e-05
-1.94491e-06
4.3562e-07
1.47166e-05
1.92818e-05
2.78197e-05
3.05373e-05
3.50627e-05
3.48381e-05
3.39448e-05
3.29663e-05
2.91546e-05
2.55992e-05
1.88306e-05
1.17233e-05
5.84283e-06
-9.17053e-07
6.8069e-06
6.97601e-06
2.18219e-05
1.97551e-05
2.98176e-05
2.60922e-05
3.20262e-05
3.05787e-05
3.39887e-05
3.38442e-05
3.02543e-05
3.05451e-05
3.07468e-05
3.09606e-05
2.94884e-05
2.98322e-05
2.9199e-05
2.96645e-05
3.0058e-05
2.61776e-05
2.10643e-05
7.85341e-07
1.06828e-06
-6.94546e-06
3.90244e-06
5.44949e-06
1.58475e-05
1.92366e-05
2.56035e-05
2.73437e-05
3.01478e-05
2.95189e-05
2.90782e-05
2.81548e-05
2.52092e-05
2.2613e-05
1.84065e-05
1.24989e-05
9.3103e-06
3.23381e-06
8.50154e-06
8.23235e-06
2.00084e-05
1.7611e-05
2.55626e-05
2.28953e-05
2.72456e-05
2.64445e-05
2.91227e-05
2.88106e-05
2.7734e-05
2.72058e-05
2.75197e-05
2.72575e-05
2.55552e-05
2.52107e-05
2.42464e-05
2.28778e-05
2.39369e-05
1.92593e-05
1.82224e-05
4.72349e-06
6.75253e-06
9.89407e-07
9.01583e-06
1.00764e-05
1.72705e-05
1.98433e-05
2.44593e-05
2.52717e-05
2.72912e-05
2.617e-05
2.61932e-05
2.51848e-05
2.28047e-05
2.12051e-05
1.83582e-05
1.35191e-05
1.28519e-05
6.62515e-06
1.15807e-05
9.01738e-06
1.84063e-05
1.58806e-05
2.20736e-05
2.06805e-05
2.39768e-05
2.39808e-05
2.6076e-05
2.56197e-05
2.59866e-05
2.49971e-05
2.5582e-05
2.47118e-05
2.31235e-05
2.24063e-05
2.15318e-05
1.8681e-05
2.02996e-05
1.52306e-05
1.69628e-05
7.57569e-06
1.11369e-05
6.40922e-06
1.29333e-05
1.36537e-05
1.85874e-05
2.06954e-05
2.37132e-05
2.40456e-05
2.56852e-05
2.36319e-05
2.44617e-05
2.33672e-05
2.10903e-05
2.01358e-05
1.83248e-05
1.39513e-05
1.5197e-05
8.86362e-06
1.39797e-05
9.66637e-06
1.75655e-05
1.46408e-05
1.99068e-05
1.95014e-05
2.15962e-05
2.26071e-05
2.42775e-05
2.34724e-05
2.53569e-05
2.33723e-05
2.45186e-05
2.30607e-05
2.1242e-05
2.12585e-05
1.98684e-05
1.62315e-05
1.92493e-05
1.27243e-05
1.72015e-05
8.92772e-06
1.42938e-05
1.01881e-05
1.5347e-05
1.64816e-05
1.9382e-05
2.15413e-05
2.32065e-05
2.28775e-05
2.43531e-05
2.1837e-05
2.3526e-05
2.18108e-05
1.99119e-05
1.95133e-05
1.84013e-05
1.33819e-05
1.67228e-05
9.64471e-06
1.57957e-05
9.84232e-06
1.75828e-05
1.3519e-05
1.85184e-05
1.87832e-05
2.01226e-05
2.20013e-05
2.27502e-05
2.20928e-05
2.5246e-05
2.14805e-05
2.40906e-05
2.24892e-05
1.97617e-05
2.03839e-05
1.91916e-05
1.46755e-05
1.91728e-05
1.13477e-05
1.79592e-05
9.72166e-06
1.65634e-05
1.21725e-05
1.71579e-05
1.85359e-05
1.91124e-05
2.23191e-05
2.33079e-05
2.18294e-05
2.38643e-05
1.9962e-05
2.2989e-05
2.07936e-05
1.83053e-05
1.95055e-05
1.81948e-05
1.23463e-05
1.82123e-05
8.83797e-06
1.75626e-05
8.97705e-06
1.77308e-05
1.26209e-05
1.73311e-05
1.87802e-05
1.86725e-05
2.17809e-05
2.16486e-05
2.03573e-05
2.5088e-05
2.02221e-05
2.41766e-05
2.15141e-05
1.8551e-05
2.04117e-05
1.88143e-05
1.29415e-05
1.9837e-05
9.9996e-06
1.92115e-05
9.61826e-06
1.85485e-05
1.2753e-05
1.78824e-05
1.97563e-05
1.8912e-05
2.31181e-05
2.27035e-05
2.0891e-05
2.40706e-05
1.7267e-05
2.29559e-05
2.03818e-05
1.56968e-05
1.99658e-05
1.79252e-05
1.03424e-05
1.93954e-05
7.09804e-06
1.89718e-05
7.42083e-06
1.82881e-05
1.11237e-05
1.61225e-05
1.93844e-05
1.64093e-05
2.18541e-05
2.10098e-05
1.78052e-05
2.51529e-05
1.83457e-05
2.46811e-05
2.07503e-05
1.68883e-05
2.10919e-05
1.83923e-05
1.06945e-05
2.13677e-05
7.715e-06
2.10965e-05
8.0478e-06
2.02283e-05
1.19522e-05
1.79761e-05
2.06223e-05
1.77102e-05
2.40065e-05
2.19808e-05
1.94768e-05
2.41561e-05
1.40265e-05
2.37933e-05
1.9236e-05
1.23527e-05
2.11387e-05
1.74369e-05
6.62531e-06
2.11069e-05
3.59164e-06
2.08148e-05
4.23944e-06
1.92914e-05
8.31623e-06
1.46168e-05
1.9685e-05
1.3566e-05
2.25459e-05
1.94876e-05
1.47196e-05
2.58202e-05
1.54951e-05
2.56573e-05
1.97798e-05
1.36872e-05
2.23954e-05
1.76892e-05
7.65565e-06
2.29513e-05
4.57555e-06
2.28188e-05
5.33111e-06
2.1478e-05
9.46291e-06
1.73872e-05
2.16347e-05
1.52229e-05
2.49634e-05
2.08107e-05
1.66264e-05
2.50889e-05
7.58457e-06
2.63958e-05
1.82533e-05
5.38928e-06
2.43558e-05
1.68446e-05
-1.25149e-06
2.46735e-05
-3.72873e-06
2.4328e-05
-2.66741e-06
2.17186e-05
1.89399e-06
1.20256e-05
2.10874e-05
7.47105e-06
2.46145e-05
1.7827e-05
8.76282e-06
2.62147e-05
1.0338e-05
2.75047e-05
1.76161e-05
8.19865e-06
2.5009e-05
1.59316e-05
1.69218e-06
2.51562e-05
-1.26889e-06
2.48627e-05
-2.00774e-07
2.26542e-05
4.1847e-06
1.55156e-05
2.18276e-05
1.01636e-05
2.62349e-05
1.79923e-05
1.17828e-05
2.82834e-05
-6.76471e-06
3.4072e-05
1.44177e-05
-1.19752e-05
3.4025e-05
1.38324e-05
-1.99366e-05
3.23838e-05
-2.06819e-05
3.13139e-05
-1.89725e-05
2.70517e-05
-1.40784e-05
6.78619e-06
2.45748e-05
-6.66916e-06
3.08996e-05
1.29157e-05
-5.60563e-06
-0.0109867
-0.0105942
-0.0102885
-0.0100771
-0.00996077
-0.00994844
-0.0100695
-0.0103044
-0.0106473
-0.011074
-0.0115622
-0.0120607
-0.0125064
-0.0128213
-0.0129546
-0.0129169
-0.0127162
-0.0123681
-0.0119228
-0.0114433
0.00232625
0.00228035
0.00214926
0.00198786
0.00183387
0.00174404
0.001675
0.00158987
0.00146779
0.00131347
0.00111145
0.000888415
0.000699396
0.000605162
0.00066744
0.000935742
0.00131237
0.00170486
0.00203612
0.00225045
-0.00233637
-0.00210103
-0.00191562
-0.00177997
-0.00173064
-0.00178666
-0.00191436
-0.00206426
-0.00228229
-0.00253842
-0.00286987
-0.00322088
-0.00352351
-0.00369317
-0.00372965
-0.00365449
-0.0034661
-0.00318804
-0.00288638
-0.00259708
0.00291025
0.00297363
0.00299785
0.00301528
0.00302023
0.00302015
0.0029535
0.00287538
0.00270875
0.00251587
0.00218809
0.00181911
0.00151267
0.0013823
0.00150986
0.00176947
0.00210794
0.0024133
0.00264766
0.0028106
-0.000458571
-0.000310883
-0.000237982
-0.000191014
-0.00022853
-0.000244305
-0.000305674
-0.000352576
-0.000508052
-0.000704267
-0.00112496
-0.00163083
-0.00205871
-0.00228686
-0.00231018
-0.00212762
-0.00177024
-0.0013623
-0.000981266
-0.000674086
0.00202437
0.002126
0.00217659
0.00222234
0.00221862
0.00220849
0.00212564
0.00205407
0.0018585
0.00163441
0.00112049
0.00058355
0.000208245
0.000148332
0.000363872
0.000721898
0.00110014
0.0014277
0.00169147
0.00188956
6.06449e-05
0.000104658
0.000108767
0.000112963
9.0605e-05
0.000112616
8.22533e-05
7.50072e-05
-7.18669e-05
-0.00028244
-0.000891007
-0.00153953
-0.00194211
-0.00199604
-0.00169885
-0.00124498
-0.00078664
-0.000429667
-0.000177212
-2.09375e-05
0.00125592
0.00132607
0.0013588
0.0013928
0.00136829
0.0013544
0.00127735
0.0012114
0.00102322
0.000771372
0.000115621
-0.00048955
-0.000756613
-0.000571861
-0.000172666
0.000240278
0.00060163
0.000855729
0.00104161
0.00116889
0.00017376
0.000183589
0.000171158
0.00017226
0.000164769
0.000189043
0.000169165
0.000164373
4.10994e-05
-0.000181158
-0.00086373
-0.0015039
-0.00171864
-0.00145612
-0.000968671
-0.000552336
-0.000224437
-3.10493e-05
9.07372e-05
0.000150601
0.000743434
0.000783591
0.000799892
0.00081546
0.000792661
0.000777377
0.000717473
0.000662375
0.000518149
0.000290317
-0.000337104
-0.000847073
-0.000856189
-0.000556878
-0.000132852
0.000166545
0.000398569
0.000530486
0.000630933
0.000695496
0.000179013
0.000182778
0.000172522
0.00017823
0.000172866
0.000191187
0.000176545
0.000180536
9.87191e-05
-4.70222e-05
-0.000623413
-0.00115683
-0.00109758
-0.000794572
-0.000407451
-0.000171899
6.5275e-06
8.88776e-05
0.000147358
0.000170248
0.000436509
0.000457465
0.000463502
0.000469649
0.0004505
0.000437492
0.000393617
0.000357582
0.000265859
0.000139347
-0.000326234
-0.000619841
-0.000506702
-0.000239609
3.33009e-05
0.000170642
0.000283858
0.000332811
0.000382674
0.000411427
0.000155857
0.000160494
0.000155576
0.000162898
0.00015819
0.000173645
0.000164407
0.000190827
0.00015614
0.000180892
-0.000199732
-0.000575242
-0.000489139
-0.000327991
-0.000117496
-2.5125e-05
6.68731e-05
9.94939e-05
0.000135259
0.00014762
0.000262253
0.000272903
0.000273743
0.0002761
0.000259865
0.000249757
0.000216732
0.000198032
0.000150909
0.000142311
-8.04681e-05
-0.000198049
-0.000125532
-1.0318e-05
0.0001118
0.000143394
0.000195155
0.00020782
0.000235742
0.000248334
0.000127518
0.000133293
0.000132137
0.000139192
0.000135296
0.000148781
0.000144391
0.000185345
0.000191664
0.000365573
0.000228875
-0.000146372
-0.000154562
-0.000139835
-4.82567e-05
-1.03938e-05
5.47004e-05
7.59222e-05
0.000106753
0.000117684
0.000166161
0.000171876
0.000170703
0.000171399
0.000157757
0.000149355
0.000122328
0.000109801
7.8065e-05
0.000145084
0.000251639
8.32716e-06
-2.29462e-05
-1.50816e-05
5.4247e-05
6.77557e-05
0.000114963
0.00012581
0.000149137
0.000156845
0.000102664
0.000108156
0.000108636
0.00011426
0.000110953
0.000120335
0.00011654
0.000141312
0.000130456
0.000185717
0.000108642
-6.10596e-05
-5.50108e-05
-7.62979e-05
-1.48466e-05
-4.36632e-06
4.27413e-05
5.73078e-05
8.34116e-05
9.29032e-05
0.000114304
0.000117278
0.000115614
0.000115548
0.000104555
9.73596e-05
7.62698e-05
6.32552e-05
4.14072e-05
4.32981e-05
7.53003e-05
4.5726e-06
2.90983e-05
2.15172e-05
6.15629e-05
5.82044e-05
8.6716e-05
8.8607e-05
0.000104389
0.000108084
8.37999e-05
8.79581e-05
8.87514e-05
9.2572e-05
8.95619e-05
9.50942e-05
9.22663e-05
0.000104264
9.67805e-05
0.000106187
6.34071e-05
-2.57685e-05
-1.74724e-05
-4.13639e-05
2.92117e-07
3.5426e-06
3.81824e-05
4.77809e-05
6.82644e-05
7.54116e-05
8.58877e-05
8.73013e-05
8.58306e-05
8.53871e-05
7.68845e-05
7.09893e-05
5.52815e-05
4.32343e-05
2.7366e-05
1.71075e-05
3.10757e-05
8.91321e-06
3.95636e-05
3.09367e-05
5.91629e-05
5.14804e-05
7.0328e-05
6.8919e-05
7.98904e-05
8.14726e-05
7.0624e-05
7.31106e-05
7.37279e-05
7.59003e-05
7.28196e-05
7.55276e-05
7.30737e-05
7.75046e-05
7.37392e-05
7.00456e-05
4.88335e-05
-5.59431e-06
5.00094e-07
-1.95301e-05
9.78594e-06
1.08966e-05
3.66743e-05
4.33127e-05
5.89573e-05
6.37766e-05
6.9811e-05
7.01852e-05
6.92143e-05
6.85667e-05
6.21261e-05
5.76329e-05
4.63687e-05
3.6141e-05
2.57609e-05
1.41796e-05
2.27213e-05
1.40104e-05
4.07079e-05
3.28641e-05
5.3787e-05
4.64133e-05
5.97388e-05
5.78572e-05
6.58662e-05
6.64272e-05
6.19969e-05
6.27759e-05
6.32978e-05
6.40932e-05
6.09353e-05
6.17124e-05
5.92165e-05
5.91796e-05
5.81679e-05
5.01594e-05
4.18021e-05
6.18019e-06
1.24199e-05
-2.85887e-06
1.84769e-05
1.86741e-05
3.74397e-05
4.21073e-05
5.36489e-05
5.65004e-05
6.067e-05
5.99188e-05
5.96153e-05
5.87008e-05
5.35856e-05
5.03074e-05
4.31162e-05
3.41113e-05
2.87468e-05
1.76152e-05
2.47566e-05
1.81921e-05
3.9512e-05
3.20095e-05
4.83998e-05
4.28942e-05
5.26327e-05
5.15307e-05
5.75946e-05
5.74187e-05
5.66518e-05
5.57384e-05
5.65219e-05
5.63208e-05
5.29316e-05
5.27084e-05
5.01699e-05
4.71846e-05
4.82478e-05
3.88367e-05
3.79232e-05
1.37755e-05
2.15605e-05
1.00094e-05
2.60574e-05
2.59944e-05
3.90365e-05
4.25691e-05
5.08405e-05
5.19658e-05
5.54017e-05
5.34062e-05
5.39212e-05
5.25357e-05
4.82635e-05
4.63707e-05
4.1431e-05
3.35293e-05
3.28062e-05
2.11322e-05
2.9303e-05
2.07492e-05
3.82471e-05
3.11413e-05
4.40358e-05
4.07898e-05
4.79336e-05
4.80713e-05
5.25563e-05
5.17999e-05
5.32426e-05
5.10935e-05
5.25325e-05
5.11325e-05
4.79235e-05
4.72911e-05
4.51556e-05
3.97411e-05
4.27105e-05
3.23519e-05
3.67219e-05
1.90314e-05
2.86288e-05
1.88237e-05
3.18815e-05
3.18176e-05
4.06558e-05
4.37864e-05
4.91384e-05
4.92583e-05
5.25232e-05
4.85847e-05
5.06001e-05
4.86901e-05
4.453e-05
4.37273e-05
4.04079e-05
3.27223e-05
3.58197e-05
2.34292e-05
3.31926e-05
2.24627e-05
3.7932e-05
3.04857e-05
4.14521e-05
4.00886e-05
4.45535e-05
4.6426e-05
4.96175e-05
4.80531e-05
5.19178e-05
4.76665e-05
5.04107e-05
4.77724e-05
4.41629e-05
4.4862e-05
4.21377e-05
3.51557e-05
4.13208e-05
2.82043e-05
3.78216e-05
2.1543e-05
3.38693e-05
2.48312e-05
3.55074e-05
3.65185e-05
4.1545e-05
4.52278e-05
4.80375e-05
4.6937e-05
5.04445e-05
4.50134e-05
4.89041e-05
4.56728e-05
4.18383e-05
4.22655e-05
3.99255e-05
3.07596e-05
3.81282e-05
2.37108e-05
3.64515e-05
2.2952e-05
3.8766e-05
2.95106e-05
3.98443e-05
3.99347e-05
4.23132e-05
4.59958e-05
4.72267e-05
4.55073e-05
5.16558e-05
4.39695e-05
4.96205e-05
4.62615e-05
4.10998e-05
4.33096e-05
4.07728e-05
3.18814e-05
4.16519e-05
2.5476e-05
3.97869e-05
2.26546e-05
3.78056e-05
2.78223e-05
3.81519e-05
4.00541e-05
4.07929e-05
4.67122e-05
4.78781e-05
4.4805e-05
4.98063e-05
4.13107e-05
4.81445e-05
4.36406e-05
3.85578e-05
4.21176e-05
3.92386e-05
2.80942e-05
4.07106e-05
2.15396e-05
3.9804e-05
2.14089e-05
3.97724e-05
2.82912e-05
3.83187e-05
4.06588e-05
3.98453e-05
4.61831e-05
4.54167e-05
4.23652e-05
5.15871e-05
4.10053e-05
4.98923e-05
4.43426e-05
3.82415e-05
4.34699e-05
3.98923e-05
2.8127e-05
4.33047e-05
2.23725e-05
4.25778e-05
2.18404e-05
4.13477e-05
2.82665e-05
3.90664e-05
4.23812e-05
3.98052e-05
4.83206e-05
4.66817e-05
4.25971e-05
5.03252e-05
3.6203e-05
4.84436e-05
4.24906e-05
3.35958e-05
4.31089e-05
3.84721e-05
2.37111e-05
4.32058e-05
1.7559e-05
4.28661e-05
1.81863e-05
4.13945e-05
2.55375e-05
3.64916e-05
4.21224e-05
3.58033e-05
4.68767e-05
4.40743e-05
3.7761e-05
5.20017e-05
3.67573e-05
5.11419e-05
4.26668e-05
3.42839e-05
4.50338e-05
3.88729e-05
2.30848e-05
4.64926e-05
1.72729e-05
4.64536e-05
1.81387e-05
4.45547e-05
2.5987e-05
3.88436e-05
4.41574e-05
3.68724e-05
5.02168e-05
4.50797e-05
3.92775e-05
5.08564e-05
2.97498e-05
5.03986e-05
4.01949e-05
2.69542e-05
4.56672e-05
3.72703e-05
1.62196e-05
4.6846e-05
1.03024e-05
4.6815e-05
1.17528e-05
4.37498e-05
1.99926e-05
3.3931e-05
4.31216e-05
3.02341e-05
4.86229e-05
4.11756e-05
3.18137e-05
5.34644e-05
3.03217e-05
5.36181e-05
4.0474e-05
2.72393e-05
4.81955e-05
3.72452e-05
1.58832e-05
5.02557e-05
9.89197e-06
5.04678e-05
1.16641e-05
4.73858e-05
2.01695e-05
3.73171e-05
4.61818e-05
3.12122e-05
5.25317e-05
4.24411e-05
3.31474e-05
5.2802e-05
1.78499e-05
5.55114e-05
3.77864e-05
1.41223e-05
5.20012e-05
3.56037e-05
1.70901e-06
5.3672e-05
-3.47134e-06
5.35343e-05
-1.1486e-06
4.83597e-05
8.06689e-06
2.94477e-05
4.57282e-05
1.90402e-05
5.27089e-05
3.75489e-05
2.09072e-05
5.48607e-05
1.95021e-05
5.8196e-05
3.6221e-05
1.55907e-05
5.43565e-05
3.37683e-05
3.09809e-06
5.56371e-05
-2.68408e-06
5.55067e-05
-2.004e-07
5.05512e-05
8.93383e-06
3.35714e-05
4.72916e-05
2.07088e-05
5.58987e-05
3.6927e-05
2.30815e-05
5.81348e-05
-5.05599e-06
6.85119e-05
3.11232e-05
-1.32671e-05
6.843e-05
3.03284e-05
-2.79149e-05
6.69525e-05
-3.07358e-05
6.56379e-05
-2.72754e-05
5.74359e-05
-1.74173e-05
2.13849e-05
5.15624e-05
-3.39056e-06
6.32263e-05
2.89528e-05
-1.63934e-06
-0.0135294
-0.0129805
-0.0125313
-0.0122036
-0.0120118
-0.0119855
-0.0121408
-0.0124562
-0.0129209
-0.013499
-0.0141542
-0.014818
-0.0154092
-0.0158334
-0.0160268
-0.0159971
-0.015756
-0.015325
-0.0147624
-0.0141412
0.00193446
0.00199135
0.00192514
0.00179077
0.00163351
0.00151841
0.00138227
0.00120745
0.000972704
0.000687808
0.000341705
-2.52317e-05
-0.000336983
-0.000510469
-0.000465339
-0.000152139
0.000325984
0.000859939
0.0013511
0.00172263
-0.00274631
-0.00243854
-0.00222225
-0.00208725
-0.00207321
-0.0021807
-0.00237756
-0.00261744
-0.00295208
-0.00334955
-0.00384923
-0.00437136
-0.00481335
-0.00505155
-0.00507935
-0.00489734
-0.0045353
-0.00405829
-0.00356787
-0.00312189
0.00338181
0.00345927
0.00347784
0.00348057
0.00345797
0.00341391
0.00328825
0.00313279
0.00285451
0.00251834
0.0020037
0.00145075
0.00102374
0.000887737
0.00113738
0.00158344
0.0021313
0.00262087
0.00299154
0.00323984
-0.000285164
-0.000126143
-5.5079e-05
-1.8788e-05
-7.96438e-05
-0.000120774
-0.000230573
-0.000344124
-0.00061105
-0.000961792
-0.00160205
-0.00231545
-0.00284471
-0.00304783
-0.00291549
-0.00251677
-0.00195101
-0.00138187
-0.000895903
-0.000529284
0.00247789
0.0025971
0.00265316
0.00269981
0.00267691
0.00264348
0.00251206
0.00237507
0.00206416
0.00167619
0.000918531
0.000183534
-0.000249176
-0.000194056
0.00021355
0.000771077
0.00130825
0.00174349
0.00207571
0.00231673
0.000290866
0.000348645
0.000355652
0.000357957
0.000326106
0.000334315
0.000266353
0.000205514
-5.07291e-05
-0.000428866
-0.00130558
-0.00214886
-0.00257542
-0.00248171
-0.00197887
-0.00134313
-0.000752267
-0.000310982
-3.8128e-06
0.000187791
0.00158482
0.00167343
0.00171328
0.00174983
0.00171282
0.00168289
0.00156684
0.00144675
0.00115073
0.000728879
-0.000200166
-0.00097094
-0.00120048
-0.000857777
-0.000266433
0.000288702
0.000752387
0.00107361
0.00130916
0.00147247
0.000370676
0.000392095
0.00038186
0.000385343
0.000369827
0.000385553
0.000336354
0.000289352
7.14514e-05
-0.000312695
-0.00126939
-0.00205855
-0.00219987
-0.00176812
-0.00110766
-0.000574978
-0.000163416
8.29574e-05
0.000244214
0.000330602
0.000967383
0.0010202
0.00104045
0.00105741
0.00102542
0.000999516
0.000910625
0.000815452
0.000585645
0.000209192
-0.000674594
-0.00129115
-0.00120091
-0.000747641
-0.000183028
0.000203767
0.000502601
0.000677361
0.000812905
0.000902054
0.000329494
0.00034132
0.000332255
0.000340391
0.000328752
0.000342052
0.000306588
0.000283504
0.000133286
-0.0001353
-0.000946303
-0.00156709
-0.00139591
-0.000962939
-0.000461232
-0.000160891
7.02616e-05
0.00018405
0.000269271
0.000309238
0.000586629
0.000615399
0.000623089
0.000630357
0.000604093
0.00058461
0.000521052
0.000460979
0.000313386
8.69938e-05
-0.00057603
-0.000910386
-0.000694894
-0.000325311
3.16388e-05
0.000211614
0.000364247
0.000435775
0.000507717
0.000550815
0.000266191
0.000276521
0.000272385
0.000281856
0.000272388
0.00028591
0.000263671
0.000279667
0.000206654
0.000171445
-0.000374
-0.000792563
-0.000621575
-0.000393142
-0.000119435
5.47171e-07
0.000124076
0.000173157
0.000226882
0.000249901
0.00036432
0.000379941
0.000381367
0.000384765
0.000362981
0.000349312
0.000303446
0.000274238
0.000198532
0.00014687
-0.000189872
-0.00032241
-0.000185632
-2.69172e-05
0.000136439
0.000181879
0.000256537
0.000279903
0.000322368
0.000343383
0.000208005
0.000217997
0.000217457
0.00022638
0.000218857
0.000232294
0.000220321
0.000262052
0.000254073
0.000423658
0.000205033
-0.000227917
-0.000194067
-0.000162121
-3.66776e-05
1.11357e-05
9.83453e-05
0.000129287
0.000173768
0.000191999
0.000238189
0.000247283
0.000246278
0.00024787
0.000229767
0.000219283
0.000183113
0.000166702
0.000120668
0.000188047
0.000272719
-3.08667e-05
-4.12304e-05
-2.5138e-05
7.11355e-05
9.17544e-05
0.000157827
0.000175708
0.000210407
0.000223739
0.000162737
0.000171324
0.000172238
0.000179319
0.000173077
0.000182713
0.000173583
0.000199914
0.000179851
0.000239167
0.000132108
-8.80824e-05
-6.91173e-05
-9.18579e-05
-6.22937e-06
9.34264e-06
7.47278e-05
9.62057e-05
0.000133359
0.000148115
0.000167998
0.000173263
0.000171588
0.000172189
0.000157569
0.000148856
0.000120842
0.000104899
7.37255e-05
7.41028e-05
9.73958e-05
-5.63681e-06
3.0709e-05
2.03836e-05
7.89532e-05
7.74222e-05
0.000120073
0.000126049
0.000150513
0.000157931
0.000130639
0.0001369
0.000137924
0.000142724
0.000137221
0.000142753
0.000135893
0.000148008
0.000134462
0.000142454
8.56131e-05
-3.37914e-05
-1.73129e-05
-4.70622e-05
1.15553e-05
1.66496e-05
6.50161e-05
7.89048e-05
0.000107822
0.000118532
0.000128442
0.000131302
0.00012974
0.000129696
0.000118241
0.000111103
9.01675e-05
7.52091e-05
5.28915e-05
3.85509e-05
4.83435e-05
9.58247e-06
5.01858e-05
3.66947e-05
7.82261e-05
6.99253e-05
9.90467e-05
9.97638e-05
0.000117193
0.000121132
0.000109139
0.00011286
0.000113556
0.000116254
0.000110965
0.000113388
0.000107756
0.000111159
0.000103509
9.60459e-05
6.81763e-05
-4.55273e-06
8.11687e-06
-1.77946e-05
2.39359e-05
2.53199e-05
6.12503e-05
7.04788e-05
9.24015e-05
9.9468e-05
0.000105596
0.000106697
0.000105643
0.000105125
9.62485e-05
9.0734e-05
7.55903e-05
6.25323e-05
4.80606e-05
3.17209e-05
3.8804e-05
2.03347e-05
5.54212e-05
4.28233e-05
7.36729e-05
6.50013e-05
8.59022e-05
8.51978e-05
9.80114e-05
9.99784e-05
9.54078e-05
9.66358e-05
9.72101e-05
9.81236e-05
9.29585e-05
9.32777e-05
8.82337e-05
8.64541e-05
8.32527e-05
7.08308e-05
6.00115e-05
1.25776e-05
2.46476e-05
4.38053e-06
3.50829e-05
3.49557e-05
6.11453e-05
6.74491e-05
8.3583e-05
8.77022e-05
9.24058e-05
9.16823e-05
9.14179e-05
9.03468e-05
8.31261e-05
7.90491e-05
6.90772e-05
5.72854e-05
4.98362e-05
3.39198e-05
4.14955e-05
2.79715e-05
5.63833e-05
4.46299e-05
6.87471e-05
6.20663e-05
7.73999e-05
7.71454e-05
8.67615e-05
8.72753e-05
8.70229e-05
8.58029e-05
8.67861e-05
8.63355e-05
8.10507e-05
8.03765e-05
7.5785e-05
7.05501e-05
7.0885e-05
5.68537e-05
5.61647e-05
2.36799e-05
3.70497e-05
2.13116e-05
4.46419e-05
4.41763e-05
6.2508e-05
6.72596e-05
7.88077e-05
8.04451e-05
8.47708e-05
8.20836e-05
8.2918e-05
8.10394e-05
7.48495e-05
7.24678e-05
6.54575e-05
5.47255e-05
5.37008e-05
3.70847e-05
4.73102e-05
3.27339e-05
5.65987e-05
4.56652e-05
6.47885e-05
6.08061e-05
7.19822e-05
7.30134e-05
8.00189e-05
7.9388e-05
8.18541e-05
7.86456e-05
8.06577e-05
7.85845e-05
7.35489e-05
7.26606e-05
6.88699e-05
6.0707e-05
6.43663e-05
4.90239e-05
5.57144e-05
3.12669e-05
4.65731e-05
3.2934e-05
5.19489e-05
5.16761e-05
6.41123e-05
6.84638e-05
7.59832e-05
7.60513e-05
8.06014e-05
7.50862e-05
7.79838e-05
7.51818e-05
6.91019e-05
6.82403e-05
6.32923e-05
5.2493e-05
5.69792e-05
3.91425e-05
5.25546e-05
3.58236e-05
5.7584e-05
4.63632e-05
6.26553e-05
6.10914e-05
6.81642e-05
7.13066e-05
7.61104e-05
7.41499e-05
7.96642e-05
7.33815e-05
7.7391e-05
7.35784e-05
6.80197e-05
6.90362e-05
6.47909e-05
5.44853e-05
6.30329e-05
4.39853e-05
5.80004e-05
3.50528e-05
5.372e-05
4.07472e-05
5.65571e-05
5.78174e-05
6.49131e-05
7.0228e-05
7.42024e-05
7.25029e-05
7.78413e-05
6.97958e-05
7.54849e-05
7.08041e-05
6.48834e-05
6.59543e-05
6.21626e-05
4.91934e-05
5.98732e-05
3.88764e-05
5.71914e-05
3.69056e-05
5.9675e-05
4.61394e-05
6.14053e-05
6.1884e-05
6.55054e-05
7.11614e-05
7.30537e-05
7.04606e-05
7.90781e-05
6.79998e-05
7.61337e-05
7.105e-05
6.34701e-05
6.69322e-05
6.2861e-05
4.97763e-05
6.3971e-05
4.03214e-05
6.13391e-05
3.65627e-05
5.92004e-05
4.45552e-05
5.98095e-05
6.25467e-05
6.37203e-05
7.22122e-05
7.36188e-05
6.92579e-05
7.70025e-05
6.44003e-05
7.44763e-05
6.78143e-05
6.00584e-05
6.5617e-05
6.10225e-05
4.50206e-05
6.33694e-05
3.5564e-05
6.20166e-05
3.5059e-05
6.18356e-05
4.49974e-05
5.99623e-05
6.35061e-05
6.23171e-05
7.18079e-05
7.06697e-05
6.605e-05
7.89971e-05
6.33278e-05
7.64663e-05
6.82658e-05
5.90038e-05
6.71988e-05
6.15644e-05
4.42646e-05
6.66333e-05
3.57661e-05
6.5664e-05
3.51638e-05
6.41215e-05
4.4838e-05
6.08267e-05
6.58333e-05
6.1911e-05
7.44513e-05
7.18534e-05
6.57308e-05
7.7656e-05
5.72164e-05
7.50304e-05
6.58916e-05
5.31013e-05
6.7021e-05
5.98225e-05
3.854e-05
6.70543e-05
2.96729e-05
6.66454e-05
3.05548e-05
6.46169e-05
4.13706e-05
5.78223e-05
6.58033e-05
5.69167e-05
7.31051e-05
6.86522e-05
5.97119e-05
7.96343e-05
5.68468e-05
7.82892e-05
6.57433e-05
5.28674e-05
6.95055e-05
6.00508e-05
3.67272e-05
7.12656e-05
2.82707e-05
7.13059e-05
2.96601e-05
6.86367e-05
4.12296e-05
6.02242e-05
6.841e-05
5.73783e-05
7.715e-05
6.94207e-05
6.05391e-05
7.84885e-05
4.80191e-05
7.78595e-05
6.2622e-05
4.36691e-05
7.07069e-05
5.80326e-05
2.78987e-05
7.23306e-05
1.93405e-05
7.2433e-05
2.15315e-05
6.82049e-05
3.36627e-05
5.44572e-05
6.74876e-05
4.91189e-05
7.57255e-05
6.46098e-05
5.13208e-05
8.15923e-05
4.72583e-05
8.19803e-05
6.24788e-05
4.24908e-05
7.42137e-05
5.76762e-05
2.5853e-05
7.69006e-05
1.72605e-05
7.7319e-05
1.99862e-05
7.28068e-05
3.25802e-05
5.77532e-05
7.12366e-05
4.89906e-05
8.05539e-05
6.54709e-05
5.15274e-05
8.10253e-05
3.20695e-05
8.47374e-05
5.90086e-05
2.65023e-05
7.9299e-05
5.5506e-05
8.52167e-06
8.15214e-05
8.50152e-07
8.15233e-05
4.30368e-06
7.43649e-05
1.77648e-05
4.84986e-05
7.09324e-05
3.42293e-05
8.12033e-05
5.93391e-05
3.67068e-05
8.36221e-05
3.21628e-05
8.85879e-05
5.67041e-05
2.61643e-05
8.30292e-05
5.30219e-05
7.88407e-06
8.47126e-05
-3.53933e-07
8.46946e-05
3.40762e-06
7.74752e-05
1.69031e-05
5.24268e-05
7.31001e-05
3.44443e-05
8.54486e-05
5.79355e-05
3.74688e-05
8.7222e-05
4.29852e-06
0.000100642
5.06127e-05
-6.50147e-06
9.95063e-05
4.89356e-05
-2.72364e-05
9.79365e-05
-3.22003e-05
9.65414e-05
-2.731e-05
8.53728e-05
-1.30468e-05
3.84742e-05
7.79165e-05
7.14358e-06
9.38482e-05
4.83575e-05
9.55382e-06
-0.0149493
-0.0143243
-0.0138105
-0.0134353
-0.0132215
-0.0132054
-0.0133945
-0.0137668
-0.0143083
-0.014976
-0.0157254
-0.0164771
-0.017139
-0.0176073
-0.0178137
-0.0177667
-0.0174812
-0.0169855
-0.0163461
-0.0156427
0.00141575
0.00152461
0.00149539
0.00138204
0.00123497
0.00111146
0.000935121
0.00070296
0.000392855
2.07772e-05
-0.000418797
-0.000873604
-0.00125301
-0.00146167
-0.00140887
-0.00105281
-0.000506927
0.000109799
0.000686469
0.00113718
-0.00310454
-0.0027484
-0.0025089
-0.00237044
-0.00238081
-0.00252192
-0.00276656
-0.00307132
-0.00348994