/*--------------------------------*- C++ -*----------------------------------*\
| =========                 |                                                 |
| \\      /  F ield         | OpenFOAM: The Open Source CFD Toolbox           |
|  \\    /   O peration     | Version:  2.4.0                                 |
|   \\  /    A nd           | Web:      www.OpenFOAM.org                      |
|    \\/     M anipulation  |                                                 |
\*---------------------------------------------------------------------------*/
FoamFile
{
    version     2.0;
    format      ascii;
    class       volScalarField;
    location    "810";
    object      p;
}
// * * * * * * * * * * * * * * * * * * * * * * * * * * * * * * * * * * * * * //

dimensions      [0 2 -2 0 0 0 0];

internalField   nonuniform List<scalar> 
283312
(
-0.0062698
-0.00632803
-0.00656757
-0.00690845
-0.00726268
-0.0075611
-0.00779553
-0.00796047
-0.00808802
-0.00820147
-0.00832088
-0.00843275
-0.00850504
-0.00848202
-0.00833056
-0.00805785
-0.00767463
-0.00721795
-0.00676918
-0.00642668
0.00215305
0.00164906
0.00122071
0.000949313
0.000848019
0.000911852
0.00105347
0.00119346
0.00130361
0.00139133
0.00145891
0.00153808
0.00166687
0.00186793
0.0021545
0.0025256
0.00284279
0.00299606
0.00292138
0.00261718
-0.00230084
-0.00215176
-0.00193005
-0.00169109
-0.00149981
-0.00140383
-0.00138657
-0.00139424
-0.00144487
-0.00148831
-0.00152027
-0.00149986
-0.00142785
-0.00132603
-0.00127674
-0.00137921
-0.00161513
-0.00190579
-0.00216622
-0.00230979
0.00148386
0.0016553
0.00179834
0.00191274
0.00199556
0.00206396
0.0020705
0.0020764
0.0020425
0.00205234
0.00206871
0.00211617
0.00214706
0.00210896
0.00198652
0.00174996
0.00150256
0.00131968
0.00126417
0.00133653
-0.00074408
-0.000546446
-0.000430241
-0.000352514
-0.000349744
-0.000337615
-0.000349765
-0.000336811
-0.000367569
-0.000345712
-0.000356156
-0.00041203
-0.000585786
-0.000895918
-0.0013141
-0.00165024
-0.00174219
-0.00160444
-0.00132281
-0.00100903
0.0012049
0.00131408
0.00137169
0.0014171
0.0014307
0.00143789
0.00140325
0.00138992
0.00132513
0.00133393
0.00127649
0.00115179
0.000879317
0.00052615
0.000265093
0.00019465
0.000321347
0.000562122
0.000825891
0.00104856
-0.000150011
-0.000110701
-0.000103957
-9.8336e-05
-0.000109738
-8.47675e-05
-8.5282e-05
-5.68182e-05
-8.85974e-05
-6.48368e-05
-0.000182349
-0.000455259
-0.000865873
-0.00126904
-0.00140014
-0.00124847
-0.000936777
-0.000624541
-0.000382348
-0.000229355
0.000764045
0.000812925
0.00083631
0.000861093
0.0008493
0.000845617
0.000807985
0.000787508
0.000718448
0.000707508
0.000546893
0.000231523
-0.000173218
-0.000362322
-0.000309442
-7.7894e-05
0.000206562
0.000433314
0.000595534
0.000699041
1.35499e-07
1.74455e-06
-9.24008e-06
-1.09298e-05
-1.23731e-05
9.55773e-06
1.14047e-05
3.13317e-05
3.49731e-06
6.60437e-06
-0.000188952
-0.000597244
-0.00100268
-0.00108576
-0.000870735
-0.000579578
-0.000314752
-0.000150331
-5.41811e-05
-1.20392e-05
0.00044192
0.000466409
0.000477133
0.000487563
0.000474696
0.00046628
0.000435831
0.000413488
0.000360101
0.0003427
0.000161458
-0.000210371
-0.00046274
-0.000448544
-0.000215785
9.74618e-06
0.000194599
0.000300047
0.00037089
0.00041253
4.42299e-05
4.21419e-05
3.32199e-05
3.50462e-05
3.4291e-05
4.9348e-05
4.97056e-05
6.60119e-05
4.88454e-05
7.34402e-05
-0.000104188
-0.000535006
-0.000716974
-0.000634403
-0.000390604
-0.000205293
-6.71568e-05
-4.11695e-06
3.2817e-05
4.34458e-05
0.000251188
0.000262906
0.000266687
0.000269808
0.000258625
0.000249853
0.000226249
0.000208644
0.000173239
0.000192177
5.50945e-05
-0.000227751
-0.000332368
-0.000226204
-4.54268e-05
6.89704e-05
0.000154734
0.000191216
0.000221413
0.000237343
5.52039e-05
5.51359e-05
5.06223e-05
5.40524e-05
5.28562e-05
6.41199e-05
6.37583e-05
8.73132e-05
8.39359e-05
0.00019027
7.55036e-05
-0.000272265
-0.000356342
-0.000290636
-0.00014501
-6.32325e-05
4.77828e-06
2.88372e-05
4.88256e-05
5.33995e-05
0.000145656
0.000150815
0.000151002
0.000151286
0.000141501
0.000133708
0.00011455
0.000102379
8.17197e-05
0.000139065
9.81024e-05
-5.16317e-05
-0.000108763
-5.34804e-05
3.36759e-05
7.06539e-05
0.00010829
0.0001181
0.000133058
0.000138849
5.29583e-05
5.46571e-05
5.31646e-05
5.67082e-05
5.54983e-05
6.44781e-05
6.47684e-05
9.3298e-05
0.000105264
0.000280157
0.000267025
-5.06553e-05
-0.000137032
-0.000139589
-7.50596e-05
-3.47129e-05
1.12372e-05
2.69902e-05
4.41468e-05
4.90273e-05
8.9117e-05
9.1311e-05
9.00935e-05
8.9302e-05
8.09551e-05
7.40747e-05
5.76995e-05
4.70773e-05
2.90057e-05
8.60762e-05
0.000195902
3.70553e-05
-1.94076e-05
-1.94034e-05
2.1538e-05
3.49311e-05
6.34533e-05
7.02503e-05
8.1981e-05
8.50414e-05
4.63847e-05
4.85736e-05
4.84695e-05
5.1299e-05
5.01929e-05
5.6182e-05
5.59808e-05
7.23543e-05
6.84967e-05
0.000106985
6.64693e-05
-3.07768e-05
-4.01418e-05
-5.48681e-05
-2.08966e-05
-1.19105e-05
1.47789e-05
2.35176e-05
3.72811e-05
4.18365e-05
5.95436e-05
6.02872e-05
5.87821e-05
5.76859e-05
5.09601e-05
4.50855e-05
3.22854e-05
2.18698e-05
9.77335e-06
9.09354e-06
4.07784e-05
9.83189e-06
1.88968e-05
1.65504e-05
3.63686e-05
3.51596e-05
4.91117e-05
4.92259e-05
5.62371e-05
5.71458e-05
3.95869e-05
4.14069e-05
4.169e-05
4.35384e-05
4.24348e-05
4.58673e-05
4.5815e-05
5.3875e-05
5.14657e-05
5.81537e-05
3.3568e-05
-1.54747e-05
-1.68325e-05
-3.05277e-05
-8.36383e-06
-4.55629e-06
1.45917e-05
2.06585e-05
3.16241e-05
3.53767e-05
4.37977e-05
4.3895e-05
4.26021e-05
4.15074e-05
3.63623e-05
3.16348e-05
2.21421e-05
1.32285e-05
4.42238e-06
-2.438e-06
1.15558e-05
6.41749e-06
2.27489e-05
2.05365e-05
3.41709e-05
3.02802e-05
3.89031e-05
3.74301e-05
4.2105e-05
4.21984e-05
3.41215e-05
3.52211e-05
3.54741e-05
3.64246e-05
3.51147e-05
3.6719e-05
3.64952e-05
3.9768e-05
3.90728e-05
3.78458e-05
2.53902e-05
-5.23293e-06
-6.21042e-06
-1.71478e-05
-1.94376e-06
4.36917e-07
1.4718e-05
1.92832e-05
2.78211e-05
3.05385e-05
3.50638e-05
3.4839e-05
3.39456e-05
3.2967e-05
2.91553e-05
2.55998e-05
1.88311e-05
1.17237e-05
5.84313e-06
-9.16776e-07
6.80748e-06
6.97691e-06
2.18231e-05
1.97563e-05
2.98188e-05
2.60933e-05
3.20274e-05
3.05798e-05
3.39899e-05
3.38453e-05
3.02553e-05
3.05459e-05
3.07474e-05
3.09611e-05
2.94888e-05
2.98325e-05
2.91994e-05
2.96649e-05
3.00584e-05
2.6178e-05
2.10646e-05
7.85601e-07
1.06868e-06
-6.9448e-06
3.90335e-06
5.4505e-06
1.58486e-05
1.92377e-05
2.56046e-05
2.73447e-05
3.01487e-05
2.95196e-05
2.90788e-05
2.81553e-05
2.52096e-05
2.26133e-05
1.84068e-05
1.24991e-05
9.31053e-06
3.23397e-06
8.50194e-06
8.23293e-06
2.00092e-05
1.76118e-05
2.55635e-05
2.28961e-05
2.72466e-05
2.64454e-05
2.91237e-05
2.88115e-05
2.77348e-05
2.72064e-05
2.75203e-05
2.72579e-05
2.55556e-05
2.5211e-05
2.42466e-05
2.2878e-05
2.39372e-05
1.92595e-05
1.82227e-05
4.7237e-06
6.75292e-06
9.89944e-07
9.01657e-06
1.00772e-05
1.72714e-05
1.98441e-05
2.44602e-05
2.52725e-05
2.72919e-05
2.61706e-05
2.61937e-05
2.51852e-05
2.28051e-05
2.12053e-05
1.83585e-05
1.35192e-05
1.2852e-05
6.62525e-06
1.1581e-05
9.01775e-06
1.84069e-05
1.58812e-05
2.20743e-05
2.06812e-05
2.39776e-05
2.39815e-05
2.60768e-05
2.56204e-05
2.59872e-05
2.49977e-05
2.55824e-05
2.47122e-05
2.31238e-05
2.24065e-05
2.1532e-05
1.86811e-05
2.02998e-05
1.52308e-05
1.6963e-05
7.57587e-06
1.11372e-05
6.40966e-06
1.29339e-05
1.36543e-05
1.85882e-05
2.06961e-05
2.37139e-05
2.40463e-05
2.56858e-05
2.36324e-05
2.44621e-05
2.33676e-05
2.10906e-05
2.01359e-05
1.8325e-05
1.39513e-05
1.51971e-05
8.86369e-06
1.39799e-05
9.66662e-06
1.7566e-05
1.46413e-05
1.99074e-05
1.95019e-05
2.15968e-05
2.26077e-05
2.42781e-05
2.3473e-05
2.53574e-05
2.33728e-05
2.4519e-05
2.3061e-05
2.12422e-05
2.12586e-05
1.98686e-05
1.62315e-05
1.92495e-05
1.27244e-05
1.72017e-05
8.92788e-06
1.42941e-05
1.01885e-05
1.53475e-05
1.64821e-05
1.93826e-05
2.15419e-05
2.32071e-05
2.28781e-05
2.43535e-05
2.18374e-05
2.35263e-05
2.1811e-05
1.99121e-05
1.95135e-05
1.84015e-05
1.33819e-05
1.6723e-05
9.64476e-06
1.5796e-05
9.8425e-06
1.75831e-05
1.35193e-05
1.85189e-05
1.87836e-05
2.01231e-05
2.20018e-05
2.27507e-05
2.20933e-05
2.52464e-05
2.14808e-05
2.40909e-05
2.24895e-05
1.97619e-05
2.0384e-05
1.91917e-05
1.46755e-05
1.91729e-05
1.13478e-05
1.79594e-05
9.7218e-06
1.65637e-05
1.21728e-05
1.71584e-05
1.85363e-05
1.91129e-05
2.23195e-05
2.33084e-05
2.18298e-05
2.38646e-05
1.99623e-05
2.29892e-05
2.07938e-05
1.83054e-05
1.95057e-05
1.8195e-05
1.23463e-05
1.82125e-05
8.83801e-06
1.75628e-05
8.9772e-06
1.77311e-05
1.26211e-05
1.73315e-05
1.87805e-05
1.86729e-05
2.17813e-05
2.16489e-05
2.03577e-05
2.50883e-05
2.02224e-05
2.41768e-05
2.15143e-05
1.85512e-05
2.04118e-05
1.88144e-05
1.29415e-05
1.98372e-05
9.99961e-06
1.92117e-05
9.61838e-06
1.85488e-05
1.27532e-05
1.78828e-05
1.97566e-05
1.89124e-05
2.31184e-05
2.27039e-05
2.08914e-05
2.40708e-05
1.72673e-05
2.29561e-05
2.03819e-05
1.5697e-05
1.99659e-05
1.79254e-05
1.03424e-05
1.93956e-05
7.09806e-06
1.89721e-05
7.42096e-06
1.82884e-05
1.11239e-05
1.61228e-05
1.93846e-05
1.64097e-05
2.18544e-05
2.10101e-05
1.78055e-05
2.51531e-05
1.8346e-05
2.46812e-05
2.07505e-05
1.68884e-05
2.1092e-05
1.83924e-05
1.06945e-05
2.13679e-05
7.71498e-06
2.10967e-05
8.04789e-06
2.02285e-05
1.19524e-05
1.79764e-05
2.06225e-05
1.77106e-05
2.40067e-05
2.19811e-05
1.94771e-05
2.41562e-05
1.40267e-05
2.37934e-05
1.92362e-05
1.23528e-05
2.11388e-05
1.74371e-05
6.62528e-06
2.11072e-05
3.59164e-06
2.08151e-05
4.23955e-06
1.92917e-05
8.31646e-06
1.46171e-05
1.96851e-05
1.35663e-05
2.2546e-05
1.94877e-05
1.47199e-05
2.58203e-05
1.54954e-05
2.56574e-05
1.97799e-05
1.36873e-05
2.23955e-05
1.76893e-05
7.6556e-06
2.29515e-05
4.57551e-06
2.2819e-05
5.3312e-06
2.14782e-05
9.46312e-06
1.73875e-05
2.16348e-05
1.52232e-05
2.49635e-05
2.08109e-05
1.66268e-05
2.50889e-05
7.58483e-06
2.63959e-05
1.82534e-05
5.38935e-06
2.43559e-05
1.68448e-05
-1.25159e-06
2.46738e-05
-3.72879e-06
2.43283e-05
-2.66732e-06
2.17188e-05
1.89423e-06
1.20259e-05
2.10874e-05
7.47144e-06
2.46145e-05
1.78271e-05
8.76317e-06
2.62147e-05
1.03382e-05
2.75047e-05
1.76163e-05
8.19871e-06
2.50091e-05
1.59318e-05
1.69207e-06
2.51565e-05
-1.26897e-06
2.4863e-05
-2.00695e-07
2.26545e-05
4.18493e-06
1.55158e-05
2.18276e-05
1.0164e-05
2.62349e-05
1.79925e-05
1.17832e-05
2.82832e-05
-6.76432e-06
3.40719e-05
1.44178e-05
-1.19752e-05
3.40252e-05
1.38326e-05
-1.99369e-05
3.23843e-05
-2.06821e-05
3.13143e-05
-1.89724e-05
2.70519e-05
-1.40781e-05
6.78638e-06
2.45746e-05
-6.66859e-06
3.08993e-05
1.29157e-05
-5.60503e-06
-0.010987
-0.0105946
-0.0102888
-0.0100775
-0.00996113
-0.00994881
-0.0100699
-0.0103048
-0.0106477
-0.0110745
-0.0115626
-0.0120611
-0.0125068
-0.0128216
-0.0129549
-0.0129172
-0.0127165
-0.0123685
-0.0119231
-0.0114436
0.00232619
0.00228028
0.0021492
0.00198781
0.00183381
0.00174399
0.00167495
0.00158983
0.00146775
0.00131342
0.00111142
0.000888387
0.000699379
0.000605156
0.000667449
0.000935765
0.00131239
0.00170486
0.00203609
0.00225041
-0.00233645
-0.00210113
-0.00191574
-0.00178009
-0.00173076
-0.00178679
-0.00191449
-0.0020644
-0.00228243
-0.00253856
-0.00287
-0.00322101
-0.00352361
-0.00369324
-0.0037297
-0.00365454
-0.00346615
-0.0031881
-0.00288644
-0.00259715
0.00291031
0.00297368
0.00299789
0.00301532
0.00302028
0.00302019
0.00295355
0.00287543
0.0027088
0.00251592
0.00218815
0.00181918
0.00151276
0.00138241
0.00150998
0.00176959
0.00210805
0.0024134
0.00264774
0.00281066
-0.000458598
-0.000310913
-0.000238013
-0.000191049
-0.000228566
-0.000244343
-0.000305714
-0.00035262
-0.000508098
-0.000704315
-0.00112501
-0.00163087
-0.00205873
-0.00228685
-0.00231015
-0.00212759
-0.00177022
-0.0013623
-0.00098128
-0.000674108
0.00202444
0.00212606
0.00217665
0.00222241
0.00221868
0.00220856
0.0021257
0.00205413
0.00185856
0.00163446
0.00112054
0.000583594
0.000208296
0.000148398
0.000363955
0.000721988
0.00110023
0.00142778
0.00169154
0.00188963
6.06517e-05
0.000104662
0.000108768
0.000112962
9.06023e-05
0.000112613
8.22498e-05
7.50035e-05
-7.18729e-05
-0.00028245
-0.000891035
-0.00153958
-0.00194216
-0.0019961
-0.00169889
-0.001245
-0.000786642
-0.000429661
-0.000177203
-2.09287e-05
0.00125597
0.00132612
0.00135885
0.00139285
0.00136833
0.00135445
0.0012774
0.00121145
0.00102326
0.000771405
0.000115622
-0.000489584
-0.000756668
-0.000571897
-0.000172676
0.000240297
0.000601668
0.000855777
0.00104166
0.00116895
0.000173773
0.0001836
0.000171166
0.000172267
0.000164775
0.000189049
0.000169172
0.00016438
4.11035e-05
-0.000181161
-0.000863769
-0.00150398
-0.00171875
-0.00145621
-0.000968722
-0.000552354
-0.000224433
-3.10349e-05
9.07546e-05
0.000150617
0.000743466
0.000783622
0.000799923
0.000815491
0.000792691
0.000777407
0.0007175
0.000662402
0.000518172
0.000290331
-0.000337123
-0.000847129
-0.000856259
-0.000556932
-0.000132873
0.00016655
0.00039859
0.000530515
0.000630965
0.000695529
0.000179025
0.000182787
0.00017253
0.000178237
0.000172873
0.000191193
0.000176552
0.000180543
9.87245e-05
-4.70235e-05
-0.000623442
-0.00115689
-0.00109765
-0.000794623
-0.000407473
-0.000171902
6.53643e-06
8.88912e-05
0.000147372
0.000170262
0.000436528
0.000457484
0.000463521
0.000469668
0.000450517
0.000437509
0.000393633
0.000357598
0.000265871
0.000139355
-0.000326248
-0.000619879
-0.000506741
-0.000239633
3.32948e-05
0.000170648
0.000283872
0.000332829
0.000382693
0.000411446
0.000155865
0.000160501
0.000155582
0.000162903
0.000158195
0.000173651
0.000164413
0.000190833
0.000156146
0.000180895
-0.000199747
-0.000575271
-0.000489167
-0.000328008
-0.0001175
-2.51206e-05
6.6882e-05
9.95043e-05
0.00013527
0.000147629
0.000262264
0.000272914
0.000273754
0.00027611
0.000259875
0.000249767
0.000216741
0.000198042
0.000150916
0.000142318
-8.04733e-05
-0.000198064
-0.000125544
-1.03218e-05
0.000111803
0.000143401
0.000195164
0.00020783
0.000235753
0.000248345
0.000127524
0.000133297
0.000132141
0.000139195
0.0001353
0.000148785
0.000144395
0.00018535
0.000191669
0.000365579
0.000228873
-0.000146372
-0.000154565
-0.000139836
-4.82526e-05
-1.03878e-05
5.47074e-05
7.59293e-05
0.00010676
0.00011769
0.000166167
0.000171882
0.000170709
0.000171404
0.000157762
0.00014936
0.000122333
0.000109806
7.8068e-05
0.000145087
0.000251639
8.32964e-06
-2.29401e-05
-1.50753e-05
5.42515e-05
6.77615e-05
0.00011497
0.000125817
0.000149144
0.000156852
0.000102668
0.000108159
0.000108638
0.000114263
0.000110956
0.000120338
0.000116542
0.000141315
0.000130458
0.000185718
0.000108641
-6.10591e-05
-5.50116e-05
-7.62966e-05
-1.4843e-05
-4.36229e-06
4.2746e-05
5.73126e-05
8.34163e-05
9.29074e-05
0.000114308
0.000117281
0.000115618
0.000115552
0.000104558
9.73628e-05
7.62725e-05
6.32578e-05
4.14088e-05
4.32997e-05
7.53014e-05
4.57449e-06
2.91016e-05
2.15211e-05
6.15664e-05
5.82081e-05
8.67201e-05
8.86112e-05
0.000104393
0.000108088
8.38028e-05
8.79605e-05
8.87536e-05
9.25738e-05
8.95638e-05
9.50959e-05
9.22681e-05
0.000104266
9.6782e-05
0.000106189
6.3407e-05
-2.57684e-05
-1.74725e-05
-4.13628e-05
2.94294e-07
3.54542e-06
3.81857e-05
4.77843e-05
6.82678e-05
7.54148e-05
8.58906e-05
8.73039e-05
8.5833e-05
8.53891e-05
7.68865e-05
7.0991e-05
5.5283e-05
4.32356e-05
2.73668e-05
1.71082e-05
3.10766e-05
8.91468e-06
3.95658e-05
3.09391e-05
5.91654e-05
5.1483e-05
7.03309e-05
6.89219e-05
7.98934e-05
8.14756e-05
7.06263e-05
7.31126e-05
7.37296e-05
7.59017e-05
7.28209e-05
7.55286e-05
7.30748e-05
7.75056e-05
7.37401e-05
7.00465e-05
4.88337e-05
-5.59422e-06
5.00346e-07
-1.95291e-05
9.78758e-06
1.08987e-05
3.66768e-05
4.33152e-05
5.896e-05
6.37791e-05
6.98133e-05
7.01871e-05
6.9216e-05
6.85681e-05
6.21273e-05
5.76339e-05
4.63695e-05
3.61415e-05
2.57613e-05
1.41798e-05
2.27219e-05
1.40113e-05
4.07094e-05
3.28657e-05
5.37887e-05
4.64151e-05
5.97408e-05
5.78594e-05
6.58685e-05
6.64295e-05
6.19988e-05
6.27775e-05
6.32992e-05
6.40942e-05
6.09362e-05
6.1713e-05
5.92172e-05
5.91801e-05
5.81684e-05
5.01599e-05
4.18023e-05
6.18022e-06
1.24202e-05
-2.85812e-06
1.84781e-05
1.86756e-05
3.74416e-05
4.21093e-05
5.3651e-05
5.65024e-05
6.06717e-05
5.99203e-05
5.96166e-05
5.87018e-05
5.35865e-05
5.0308e-05
4.31168e-05
3.41115e-05
2.8747e-05
1.76153e-05
2.47569e-05
1.81926e-05
3.95129e-05
3.20105e-05
4.8401e-05
4.28955e-05
5.26343e-05
5.15323e-05
5.75964e-05
5.74205e-05
5.66534e-05
5.57397e-05
5.6523e-05
5.63216e-05
5.29323e-05
5.27089e-05
5.01704e-05
4.71848e-05
4.8248e-05
3.88368e-05
3.79234e-05
1.37755e-05
2.15609e-05
1.001e-05
2.60584e-05
2.59956e-05
3.9038e-05
4.25706e-05
5.08421e-05
5.19675e-05
5.5403e-05
5.34074e-05
5.39222e-05
5.25364e-05
4.82641e-05
4.63711e-05
4.14313e-05
3.35293e-05
3.28063e-05
2.11322e-05
2.93033e-05
2.07494e-05
3.82477e-05
3.1142e-05
4.40367e-05
4.07907e-05
4.79349e-05
4.80726e-05
5.25577e-05
5.18013e-05
5.32438e-05
5.10946e-05
5.25334e-05
5.11331e-05
4.79241e-05
4.72914e-05
4.51559e-05
3.97412e-05
4.27106e-05
3.23518e-05
3.6722e-05
1.90314e-05
2.86291e-05
1.88241e-05
3.18823e-05
3.18184e-05
4.0657e-05
4.37875e-05
4.91397e-05
4.92596e-05
5.25242e-05
4.85856e-05
5.06008e-05
4.86907e-05
4.45305e-05
4.37276e-05
4.04081e-05
3.27223e-05
3.58198e-05
2.34291e-05
3.31928e-05
2.24628e-05
3.79325e-05
3.04861e-05
4.14528e-05
4.00893e-05
4.45545e-05
4.64269e-05
4.96186e-05
4.80542e-05
5.19186e-05
4.76673e-05
5.04113e-05
4.77729e-05
4.41633e-05
4.48622e-05
4.2138e-05
3.51556e-05
4.1321e-05
2.82042e-05
3.78218e-05
2.1543e-05
3.38697e-05
2.48316e-05
3.5508e-05
3.65191e-05
4.15459e-05
4.52286e-05
4.80384e-05
4.69379e-05
5.04452e-05
4.5014e-05
4.89046e-05
4.56733e-05
4.18387e-05
4.22657e-05
3.99258e-05
3.07596e-05
3.81284e-05
2.37107e-05
3.64517e-05
2.29521e-05
3.87664e-05
2.95109e-05
3.98449e-05
3.99351e-05
4.23139e-05
4.59964e-05
4.72274e-05
4.55081e-05
5.16563e-05
4.39701e-05
4.96209e-05
4.62619e-05
4.11001e-05
4.33098e-05
4.0773e-05
3.18813e-05
4.16522e-05
2.54759e-05
3.97871e-05
2.26546e-05
3.78059e-05
2.78225e-05
3.81524e-05
4.00544e-05
4.07936e-05
4.67127e-05
4.78787e-05
4.48056e-05
4.98066e-05
4.13112e-05
4.81448e-05
4.36409e-05
3.85581e-05
4.21178e-05
3.92389e-05
2.80942e-05
4.07109e-05
2.15395e-05
3.98042e-05
2.14089e-05
3.97727e-05
2.82915e-05
3.83191e-05
4.06591e-05
3.98458e-05
4.61835e-05
4.54171e-05
4.23657e-05
5.15873e-05
4.10057e-05
4.98925e-05
4.43429e-05
3.82417e-05
4.347e-05
3.98926e-05
2.8127e-05
4.3305e-05
2.23724e-05
4.2578e-05
2.18404e-05
4.1348e-05
2.82667e-05
3.90668e-05
4.23814e-05
3.98057e-05
4.83209e-05
4.6682e-05
4.25976e-05
5.03253e-05
3.62033e-05
4.84438e-05
4.24909e-05
3.3596e-05
4.3109e-05
3.84724e-05
2.37111e-05
4.32061e-05
1.75589e-05
4.28664e-05
1.81863e-05
4.13948e-05
2.55377e-05
3.64919e-05
4.21225e-05
3.58037e-05
4.68768e-05
4.40745e-05
3.77614e-05
5.20017e-05
3.67576e-05
5.1142e-05
4.2667e-05
3.42841e-05
4.5034e-05
3.88731e-05
2.30847e-05
4.64929e-05
1.72727e-05
4.64539e-05
1.81387e-05
4.45549e-05
2.59872e-05
3.88439e-05
4.41574e-05
3.68728e-05
5.02168e-05
4.50799e-05
3.92779e-05
5.08562e-05
2.975e-05
5.03986e-05
4.01951e-05
2.69543e-05
4.56673e-05
3.72706e-05
1.62195e-05
4.68465e-05
1.03023e-05
4.68153e-05
1.17528e-05
4.37501e-05
1.99928e-05
3.39312e-05
4.31215e-05
3.02345e-05
4.86227e-05
4.11756e-05
3.18139e-05
5.34642e-05
3.03219e-05
5.3618e-05
4.04741e-05
2.72394e-05
4.81956e-05
3.72455e-05
1.58831e-05
5.02562e-05
9.89182e-06
5.04681e-05
1.16641e-05
4.73861e-05
2.01697e-05
3.73173e-05
4.61817e-05
3.12126e-05
5.25315e-05
4.24411e-05
3.31477e-05
5.28016e-05
1.78501e-05
5.55112e-05
3.77865e-05
1.41223e-05
5.20014e-05
3.56041e-05
1.70878e-06
5.36727e-05
-3.47152e-06
5.35348e-05
-1.14857e-06
4.836e-05
8.06709e-06
2.94479e-05
4.57279e-05
1.90406e-05
5.27084e-05
3.75487e-05
2.09075e-05
5.48603e-05
1.95024e-05
5.81958e-05
3.62211e-05
1.55907e-05
5.43567e-05
3.37686e-05
3.09783e-06
5.56378e-05
-2.6843e-06
5.55072e-05
-2.00397e-07
5.05514e-05
8.93403e-06
3.35716e-05
4.72913e-05
2.07092e-05
5.58983e-05
3.69269e-05
2.30819e-05
5.8134e-05
-5.05555e-06
6.85115e-05
3.11233e-05
-1.32672e-05
6.84304e-05
3.03288e-05
-2.79154e-05
6.69535e-05
-3.07362e-05
6.56386e-05
-2.72754e-05
5.74361e-05
-1.7417e-05
2.1385e-05
5.15617e-05
-3.38988e-06
6.32254e-05
2.89525e-05
-1.63865e-06
-0.0135298
-0.0129809
-0.0125317
-0.0122041
-0.0120122
-0.0119859
-0.0121413
-0.0124567
-0.0129214
-0.0134995
-0.0141547
-0.0148185
-0.0154097
-0.0158338
-0.0160272
-0.0159975
-0.0157564
-0.0153253
-0.0147627
-0.0141416
0.00193435
0.00199124
0.00192504
0.00179067
0.00163342
0.00151833
0.00138219
0.00120737
0.000972629
0.000687736
0.000341639
-2.52894e-05
-0.000337029
-0.000510504
-0.00046536
-0.000152151
0.00032596
0.000859893
0.00135103
0.00172254
-0.00274643
-0.00243868
-0.0022224
-0.0020874
-0.00207337
-0.00218087
-0.00237772
-0.00261761
-0.00295225
-0.00334972
-0.0038494
-0.00437152
-0.00481348
-0.00505166
-0.00507943
-0.00489743
-0.00453537
-0.00405838
-0.00356796
-0.003122
0.00338187
0.00345932
0.00347788
0.00348062
0.00345802
0.00341395
0.00328829
0.00313284
0.00285455
0.00251838
0.00200375
0.00145081
0.00102382
0.000887839
0.0011375
0.00158356
0.0021314
0.00262097
0.00299163
0.00323991
-0.000285188
-0.000126173
-5.51133e-05
-1.8827e-05
-7.9686e-05
-0.00012082
-0.000230622
-0.000344177
-0.000611106
-0.000961851
-0.0016021
-0.0023155
-0.00284474
-0.00304784
-0.00291548
-0.00251675
-0.00195099
-0.00138187
-0.00089591
-0.000529301
0.00247798
0.00259718
0.00265323
0.00269988
0.00267698
0.00264354
0.00251212
0.00237514
0.00206422
0.00167625
0.000918579
0.000183571
-0.000249137
-0.000193999
0.000213633
0.000771179
0.00130836
0.0017436
0.00207581
0.00231682
0.000290884
0.000348657
0.00035566
0.000357961
0.000326108
0.000334315
0.000266352
0.000205512
-5.07357e-05
-0.000428879
-0.00130562
-0.00214893
-0.00257551
-0.00248179
-0.00197891
-0.00134314
-0.000752254
-0.000310958
-3.7872e-06
0.000187813
0.00158488
0.00167349
0.00171335
0.00174989
0.00171288
0.00168295
0.00156689
0.0014468
0.00115078
0.000728912
-0.000200174
-0.000970995
-0.00120056
-0.000857829
-0.000266443
0.000288733
0.000752443
0.00107367
0.00130923
0.00147254
0.000370701
0.000392115
0.000381876
0.000385356
0.000369839
0.000385565
0.000336366
0.000289363
7.14567e-05
-0.000312702
-0.00126945
-0.00205866
-0.0022
-0.00176823
-0.00110772
-0.000574989
-0.0001634
8.2985e-05
0.000244244
0.00033063
0.000967427
0.00102024
0.00104049
0.00105745
0.00102545
0.000999552
0.00091066
0.000815484
0.00058567
0.000209204
-0.000674625
-0.00129123
-0.00120101
-0.000747709
-0.000183052
0.000203778
0.000502631
0.000677401
0.000812948
0.000902098
0.000329513
0.000341336
0.00033227
0.000340404
0.000328765
0.000342064
0.0003066
0.000283515
0.000133292
-0.000135304
-0.000946345
-0.00156717
-0.001396
-0.000963002
-0.000461258
-0.00016089
7.02772e-05
0.000184072
0.000269294
0.00030926
0.000586655
0.000615424
0.000623114
0.000630381
0.000604116
0.000584632
0.000521073
0.000460999
0.0003134
8.70003e-05
-0.000576054
-0.000910439
-0.000694947
-0.000325344
3.16307e-05
0.000211623
0.000364267
0.000435799
0.000507743
0.000550841
0.000266205
0.000276532
0.000272396
0.000281866
0.000272398
0.000285919
0.000263681
0.000279677
0.000206662
0.000171447
-0.000374023
-0.000792603
-0.000621613
-0.000393164
-0.00011944
5.53914e-07
0.000124089
0.000173173
0.000226898
0.000249916
0.000364335
0.000379956
0.000381381
0.000384779
0.000362995
0.000349326
0.000303458
0.00027425
0.000198541
0.000146877
-0.000189882
-0.000322432
-0.00018565
-2.69239e-05
0.000136441
0.000181888
0.00025655
0.000279918
0.000322383
0.000343398
0.000208014
0.000218005
0.000217464
0.000226387
0.000218863
0.000232301
0.000220328
0.000262059
0.000254079
0.000423664
0.000205028
-0.00022792
-0.000194073
-0.000162124
-3.66729e-05
1.11437e-05
9.83555e-05
0.000129298
0.000173778
0.000192009
0.000238198
0.000247291
0.000246287
0.000247878
0.000229775
0.000219291
0.00018312
0.000166709
0.000120672
0.000188051
0.000272718
-3.08658e-05
-4.12254e-05
-2.51317e-05
7.11411e-05
9.17621e-05
0.000157836
0.000175718
0.000210417
0.000223749
0.000162744
0.000171329
0.000172243
0.000179323
0.000173082
0.000182717
0.000173587
0.000199918
0.000179855
0.000239169
0.000132106
-8.80829e-05
-6.91189e-05
-9.18566e-05
-6.22502e-06
9.34826e-06
7.47346e-05
9.62129e-05
0.000133366
0.000148122
0.000168004
0.000173269
0.000171593
0.000172194
0.000157574
0.00014886
0.000120846
0.000104902
7.37275e-05
7.41045e-05
9.73965e-05
-5.63531e-06
3.07121e-05
2.03878e-05
7.89576e-05
7.74273e-05
0.000120079
0.000126055
0.000150519
0.000157938
0.000130643
0.000136904
0.000137928
0.000142727
0.000137224
0.000142756
0.000135895
0.00014801
0.000134464
0.000142455
8.56127e-05
-3.37915e-05
-1.73132e-05
-4.70607e-05
1.15582e-05
1.66535e-05
6.50208e-05
7.89099e-05
0.000107827
0.000118537
0.000128447
0.000131306
0.000129743
0.000129699
0.000118244
0.000111105
9.01696e-05
7.52109e-05
5.28926e-05
3.85516e-05
4.83444e-05
9.58385e-06
5.01882e-05
3.66975e-05
7.82292e-05
6.99288e-05
9.90507e-05
9.97681e-05
0.000117197
0.000121136
0.000109143
0.000112863
0.000113559
0.000116256
0.000110968
0.00011339
0.000107757
0.000111161
0.00010351
9.60469e-05
6.81763e-05
-4.55282e-06
8.1171e-06
-1.77933e-05
2.39381e-05
2.53228e-05
6.12539e-05
7.04826e-05
9.24055e-05
9.94718e-05
0.000105599
0.0001067
0.000105646
0.000105127
9.62504e-05
9.07354e-05
7.55915e-05
6.25331e-05
4.80611e-05
3.17211e-05
3.88045e-05
2.03355e-05
5.54227e-05
4.28251e-05
7.36751e-05
6.50037e-05
8.59052e-05
8.5201e-05
9.80148e-05
9.99818e-05
9.54106e-05
9.66383e-05
9.72122e-05
9.81252e-05
9.296e-05
9.32787e-05
8.82347e-05
8.64548e-05
8.32533e-05
7.08313e-05
6.00117e-05
1.25775e-05
2.4648e-05
4.38147e-06
3.50846e-05
3.49579e-05
6.1148e-05
6.7452e-05
8.35861e-05
8.77053e-05
9.24084e-05
9.16845e-05
9.14198e-05
9.03483e-05
8.31274e-05
7.90499e-05
6.90779e-05
5.72857e-05
4.98365e-05
3.39197e-05
4.14958e-05
2.79719e-05
5.63843e-05
4.4631e-05
6.87487e-05
6.20681e-05
7.74022e-05
7.71478e-05
8.67642e-05
8.7278e-05
8.70252e-05
8.58049e-05
8.67878e-05
8.63367e-05
8.10518e-05
8.03771e-05
7.57856e-05
7.05503e-05
7.08853e-05
5.68537e-05
5.61648e-05
2.36798e-05
3.70501e-05
2.13123e-05
4.46433e-05
4.41779e-05
6.25101e-05
6.72618e-05
7.88101e-05
8.04475e-05
8.47727e-05
8.20854e-05
8.29194e-05
8.10405e-05
7.48505e-05
7.24684e-05
6.5458e-05
5.47255e-05
5.3701e-05
3.70845e-05
4.73104e-05
3.27341e-05
5.65994e-05
4.56659e-05
6.47897e-05
6.08074e-05
7.19839e-05
7.30153e-05
8.0021e-05
7.93901e-05
8.18558e-05
7.86472e-05
8.0659e-05
7.85855e-05
7.35498e-05
7.2661e-05
6.88703e-05
6.0707e-05
6.43665e-05
4.90237e-05
5.57145e-05
3.12667e-05
4.65735e-05
3.29345e-05
5.195e-05
5.16772e-05
6.41139e-05
6.84654e-05
7.5985e-05
7.60531e-05
8.06028e-05
7.50875e-05
7.79849e-05
7.51827e-05
6.91026e-05
6.82406e-05
6.32927e-05
5.2493e-05
5.69794e-05
3.91422e-05
5.25548e-05
3.58236e-05
5.75845e-05
4.63637e-05
6.26562e-05
6.10924e-05
6.81655e-05
7.13079e-05
7.6112e-05
7.41514e-05
7.96654e-05
7.33826e-05
7.73919e-05
7.35791e-05
6.80203e-05
6.90365e-05
6.47913e-05
5.44852e-05
6.30331e-05
4.39851e-05
5.80005e-05
3.50527e-05
5.37203e-05
4.07476e-05
5.6558e-05
5.78182e-05
6.49143e-05
7.02292e-05
7.42037e-05
7.25042e-05
7.78422e-05
6.97967e-05
7.54856e-05
7.08047e-05
6.48839e-05
6.59546e-05
6.21629e-05
4.91933e-05
5.98734e-05
3.88761e-05
5.71916e-05
3.69055e-05
5.96754e-05
4.61397e-05
6.1406e-05
6.18846e-05
6.55064e-05
7.11622e-05
7.30548e-05
7.04617e-05
7.90788e-05
6.80006e-05
7.61343e-05
7.10506e-05
6.34706e-05
6.69324e-05
6.28614e-05
4.97762e-05
6.39713e-05
4.03212e-05
6.13393e-05
3.65626e-05
5.92007e-05
4.45555e-05
5.98102e-05
6.25471e-05
6.37212e-05
7.22129e-05
7.36197e-05
6.92588e-05
7.7003e-05
6.44009e-05
7.44768e-05
6.78147e-05
6.00588e-05
6.56173e-05
6.10229e-05
4.50205e-05
6.33697e-05
3.55638e-05
6.20169e-05
3.50589e-05
6.1836e-05
4.49977e-05
5.99629e-05
6.35064e-05
6.23178e-05
7.18083e-05
7.06703e-05
6.60507e-05
7.89975e-05
6.33283e-05
7.64666e-05
6.82662e-05
5.90041e-05
6.7199e-05
6.15647e-05
4.42644e-05
6.66337e-05
3.57659e-05
6.56643e-05
3.51638e-05
6.41219e-05
4.48382e-05
6.08272e-05
6.58335e-05
6.19117e-05
7.44516e-05
7.18539e-05
6.57314e-05
7.76561e-05
5.72169e-05
7.50305e-05
6.58919e-05
5.31016e-05
6.70213e-05
5.9823e-05
3.85399e-05
6.70548e-05
2.96727e-05
6.66458e-05
3.05548e-05
6.46173e-05
4.13708e-05
5.78227e-05
6.58033e-05
5.69172e-05
7.31052e-05
6.86524e-05
5.97124e-05
7.96342e-05
5.68471e-05
7.82893e-05
6.57436e-05
5.28676e-05
6.95057e-05
6.00512e-05
3.6727e-05
7.12661e-05
2.82705e-05
7.13063e-05
2.966e-05
6.86371e-05
4.12298e-05
6.02246e-05
6.84099e-05
5.73788e-05
7.715e-05
6.94209e-05
6.05395e-05
7.84883e-05
4.80194e-05
7.78595e-05
6.26222e-05
4.36692e-05
7.07072e-05
5.8033e-05
2.78985e-05
7.23312e-05
1.93403e-05
7.24335e-05
2.15315e-05
6.82053e-05
3.36629e-05
5.44575e-05
6.74874e-05
4.91193e-05
7.57252e-05
6.46098e-05
5.13211e-05
8.15919e-05
4.72586e-05
8.19802e-05
6.2479e-05
4.24909e-05
7.42139e-05
5.76766e-05
2.58527e-05
7.69013e-05
1.72603e-05
7.73196e-05
1.99861e-05
7.28071e-05
3.25804e-05
5.77535e-05
7.12363e-05
4.89911e-05
8.05535e-05
6.54709e-05
5.15277e-05
8.10247e-05
3.20698e-05
8.47371e-05
5.90088e-05
2.65023e-05
7.92994e-05
5.55066e-05
8.52133e-06
8.15223e-05
8.4986e-07
8.1524e-05
4.30366e-06
7.43652e-05
1.7765e-05
4.84988e-05
7.09318e-05
3.42298e-05
8.12026e-05
5.93388e-05
3.67072e-05
8.36215e-05
3.21631e-05
8.85876e-05
5.67043e-05
2.61644e-05
8.30295e-05
5.30223e-05
7.88369e-06
8.47135e-05
-3.54276e-07
8.46953e-05
3.40758e-06
7.74755e-05
1.69033e-05
5.2427e-05
7.30995e-05
3.44449e-05
8.54479e-05
5.79352e-05
3.74693e-05
8.72209e-05
4.29904e-06
0.000100641
5.06128e-05
-6.50154e-06
9.95068e-05
4.89362e-05
-2.72371e-05
9.79377e-05
-3.22008e-05
9.65423e-05
-2.73101e-05
8.53731e-05
-1.30464e-05
3.84743e-05
7.79156e-05
7.14439e-06
9.38469e-05
4.8357e-05
9.55463e-06
-0.0149498
-0.0143247
-0.013811
-0.0134358
-0.013222
-0.0132059
-0.0133951
-0.0137673
-0.0143088
-0.0149766
-0.0157259
-0.0164776
-0.0171395
-0.0176077
-0.0178141
-0.0177671
-0.0174816
-0.016986
-0.0163465
-0.0156431
0.00141562
0.00152447
0.00149526
0.00138191
0.00123485
0.00111135
0.000935011
0.000702853
0.000392753
2.0679e-05
-0.000418889
-0.000873688
-0.00125308
-0.00146173
-0.00140892
-0.00105285
-0.000506984
0.000109719
0.000686364
0.00113705
-0.00310468
-0.00274856
-0.00250907
-0.00237062
-0.00238099
-0.00252211
-0.00276675
-0.00307152