/*--------------------------------*- C++ -*----------------------------------*\
| =========                 |                                                 |
| \\      /  F ield         | OpenFOAM: The Open Source CFD Toolbox           |
|  \\    /   O peration     | Version:  2.4.0                                 |
|   \\  /    A nd           | Web:      www.OpenFOAM.org                      |
|    \\/     M anipulation  |                                                 |
\*---------------------------------------------------------------------------*/
FoamFile
{
    version     2.0;
    format      ascii;
    class       volScalarField;
    location    "960";
    object      p;
}
// * * * * * * * * * * * * * * * * * * * * * * * * * * * * * * * * * * * * * //

dimensions      [0 2 -2 0 0 0 0];

internalField   nonuniform List<scalar> 
283312
(
-0.0062698
-0.00632803
-0.00656757
-0.00690845
-0.00726269
-0.0075611
-0.00779554
-0.00796047
-0.00808802
-0.00820148
-0.00832088
-0.00843275
-0.00850504
-0.00848202
-0.00833057
-0.00805785
-0.00767464
-0.00721795
-0.00676918
-0.00642669
0.00215305
0.00164906
0.00122071
0.000949313
0.000848019
0.000911851
0.00105347
0.00119346
0.00130361
0.00139133
0.00145891
0.00153808
0.00166687
0.00186793
0.00215451
0.0025256
0.0028428
0.00299606
0.00292138
0.00261718
-0.00230084
-0.00215176
-0.00193005
-0.0016911
-0.00149981
-0.00140383
-0.00138657
-0.00139424
-0.00144487
-0.00148831
-0.00152027
-0.00149986
-0.00142785
-0.00132603
-0.00127674
-0.00137921
-0.00161513
-0.00190579
-0.00216622
-0.00230979
0.00148386
0.0016553
0.00179834
0.00191274
0.00199556
0.00206396
0.0020705
0.0020764
0.0020425
0.00205234
0.00206871
0.00211617
0.00214706
0.00210896
0.00198652
0.00174996
0.00150256
0.00131968
0.00126417
0.00133653
-0.000744081
-0.000546446
-0.000430242
-0.000352515
-0.000349745
-0.000337616
-0.000349765
-0.000336811
-0.000367569
-0.000345713
-0.000356156
-0.00041203
-0.000585785
-0.000895917
-0.0013141
-0.00165024
-0.00174219
-0.00160444
-0.00132281
-0.00100903
0.0012049
0.00131408
0.00137169
0.0014171
0.0014307
0.00143789
0.00140325
0.00138992
0.00132513
0.00133393
0.00127649
0.00115179
0.000879319
0.000526152
0.000265094
0.000194651
0.000321347
0.000562122
0.000825891
0.00104856
-0.000150011
-0.000110701
-0.000103957
-9.83363e-05
-0.000109738
-8.47677e-05
-8.52822e-05
-5.68184e-05
-8.85976e-05
-6.48369e-05
-0.000182348
-0.000455259
-0.000865873
-0.00126904
-0.00140014
-0.00124847
-0.000936778
-0.000624542
-0.000382348
-0.000229355
0.000764045
0.000812925
0.00083631
0.000861093
0.0008493
0.000845617
0.000807985
0.000787508
0.000718448
0.000707508
0.000546894
0.000231524
-0.000173217
-0.000362322
-0.000309442
-7.78942e-05
0.000206562
0.000433313
0.000595534
0.000699041
1.35367e-07
1.74435e-06
-9.24027e-06
-1.093e-05
-1.23733e-05
9.55754e-06
1.14045e-05
3.13315e-05
3.49712e-06
6.60432e-06
-0.000188951
-0.000597243
-0.00100268
-0.00108577
-0.000870736
-0.000579578
-0.000314752
-0.000150331
-5.41813e-05
-1.20394e-05
0.00044192
0.000466409
0.000477133
0.000487564
0.000474696
0.00046628
0.000435831
0.000413488
0.000360101
0.0003427
0.00016146
-0.000210368
-0.000462738
-0.000448543
-0.000215785
9.74613e-06
0.000194599
0.000300047
0.00037089
0.00041253
4.42298e-05
4.21418e-05
3.32198e-05
3.50462e-05
3.42909e-05
4.93479e-05
4.97056e-05
6.60117e-05
4.88449e-05
7.34397e-05
-0.000104188
-0.000535004
-0.000716971
-0.000634401
-0.000390604
-0.000205293
-6.71568e-05
-4.11699e-06
3.28169e-05
4.34458e-05
0.000251188
0.000262906
0.000266687
0.000269808
0.000258625
0.000249853
0.000226249
0.000208644
0.000173238
0.000192176
5.50937e-05
-0.000227751
-0.000332367
-0.000226202
-4.54262e-05
6.89708e-05
0.000154734
0.000191217
0.000221413
0.000237343
5.5204e-05
5.51359e-05
5.06222e-05
5.40524e-05
5.28562e-05
6.41199e-05
6.37582e-05
8.73131e-05
8.39356e-05
0.000190269
7.55028e-05
-0.000272266
-0.000356342
-0.000290636
-0.000145009
-6.32323e-05
4.77836e-06
2.88373e-05
4.88257e-05
5.33995e-05
0.000145656
0.000150815
0.000151002
0.000151286
0.000141501
0.000133708
0.000114549
0.000102379
8.17195e-05
0.000139065
9.81019e-05
-5.16324e-05
-0.000108763
-5.34803e-05
3.36759e-05
7.0654e-05
0.00010829
0.0001181
0.000133058
0.000138849
5.29584e-05
5.46571e-05
5.31646e-05
5.67082e-05
5.54983e-05
6.44781e-05
6.47684e-05
9.3298e-05
0.000105264
0.000280156
0.000267025
-5.06557e-05
-0.000137032
-0.000139589
-7.50596e-05
-3.47129e-05
1.12373e-05
2.69903e-05
4.41469e-05
4.90274e-05
8.91171e-05
9.1311e-05
9.00935e-05
8.9302e-05
8.09551e-05
7.40747e-05
5.76994e-05
4.70772e-05
2.90056e-05
8.60761e-05
0.000195902
3.70554e-05
-1.94074e-05
-1.94032e-05
2.1538e-05
3.49312e-05
6.34534e-05
7.02504e-05
8.19811e-05
8.50415e-05
4.63848e-05
4.85736e-05
4.84696e-05
5.12991e-05
5.01929e-05
5.61821e-05
5.59808e-05
7.23544e-05
6.84968e-05
0.000106985
6.64692e-05
-3.07768e-05
-4.01419e-05
-5.48681e-05
-2.08965e-05
-1.19104e-05
1.4779e-05
2.35177e-05
3.72812e-05
4.18366e-05
5.95437e-05
6.02873e-05
5.87821e-05
5.76859e-05
5.096e-05
4.50855e-05
3.22853e-05
2.18697e-05
9.77319e-06
9.09345e-06
4.07784e-05
9.83195e-06
1.88969e-05
1.65505e-05
3.63686e-05
3.51596e-05
4.91117e-05
4.9226e-05
5.62372e-05
5.71459e-05
3.9587e-05
4.1407e-05
4.16901e-05
4.35384e-05
4.24348e-05
4.58674e-05
4.5815e-05
5.3875e-05
5.14657e-05
5.81537e-05
3.3568e-05
-1.54748e-05
-1.68325e-05
-3.05276e-05
-8.36378e-06
-4.55621e-06
1.45918e-05
2.06586e-05
3.16242e-05
3.53768e-05
4.37978e-05
4.38951e-05
4.26022e-05
4.15075e-05
3.63623e-05
3.16349e-05
2.21421e-05
1.32285e-05
4.42231e-06
-2.43807e-06
1.15557e-05
6.4175e-06
2.27489e-05
2.05365e-05
3.41709e-05
3.02803e-05
3.89031e-05
3.74302e-05
4.21051e-05
4.21985e-05
3.41215e-05
3.52212e-05
3.54741e-05
3.64247e-05
3.51147e-05
3.67191e-05
3.64952e-05
3.97681e-05
3.90728e-05
3.78458e-05
2.53903e-05
-5.23285e-06
-6.21036e-06
-1.71477e-05
-1.9437e-06
4.36982e-07
1.47181e-05
1.92832e-05
2.78211e-05
3.05386e-05
3.50639e-05
3.48391e-05
3.39457e-05
3.2967e-05
2.91553e-05
2.55998e-05
1.88312e-05
1.17238e-05
5.84316e-06
-9.1673e-07
6.8075e-06
6.97693e-06
2.18231e-05
1.97564e-05
2.98188e-05
2.60934e-05
3.20274e-05
3.05799e-05
3.39899e-05
3.38453e-05
3.02553e-05
3.05459e-05
3.07475e-05
3.09612e-05
2.94889e-05
2.98326e-05
2.91994e-05
2.96649e-05
3.00585e-05
2.61781e-05
2.10646e-05
7.85681e-07
1.06875e-06
-6.94473e-06
3.9034e-06
5.45054e-06
1.58487e-05
1.92377e-05
2.56047e-05
2.73448e-05
3.01487e-05
2.95197e-05
2.90789e-05
2.81554e-05
2.52097e-05
2.26134e-05
1.84069e-05
1.24991e-05
9.31056e-06
3.23402e-06
8.50197e-06
8.23297e-06
2.00093e-05
1.76119e-05
2.55636e-05
2.28962e-05
2.72466e-05
2.64455e-05
2.91237e-05
2.88115e-05
2.77349e-05
2.72064e-05
2.75203e-05
2.7258e-05
2.55557e-05
2.52111e-05
2.42467e-05
2.28781e-05
2.39373e-05
1.92596e-05
1.82228e-05
4.72378e-06
6.75298e-06
9.9e-07
9.01661e-06
1.00773e-05
1.72714e-05
1.98442e-05
2.44602e-05
2.52725e-05
2.7292e-05
2.61707e-05
2.61938e-05
2.51853e-05
2.28052e-05
2.12054e-05
1.83585e-05
1.35193e-05
1.28521e-05
6.62531e-06
1.1581e-05
9.01782e-06
1.84069e-05
1.58813e-05
2.20743e-05
2.06812e-05
2.39776e-05
2.39815e-05
2.60768e-05
2.56205e-05
2.59873e-05
2.49977e-05
2.55825e-05
2.47122e-05
2.31239e-05
2.24066e-05
2.1532e-05
1.86811e-05
2.02999e-05
1.52308e-05
1.69631e-05
7.57593e-06
1.11373e-05
6.40973e-06
1.29339e-05
1.36544e-05
1.85882e-05
2.06961e-05
2.3714e-05
2.40464e-05
2.56858e-05
2.36324e-05
2.44622e-05
2.33676e-05
2.10906e-05
2.0136e-05
1.8325e-05
1.39514e-05
1.51972e-05
8.86374e-06
1.398e-05
9.66668e-06
1.7566e-05
1.46413e-05
1.99074e-05
1.9502e-05
2.15968e-05
2.26078e-05
2.42781e-05
2.34731e-05
2.53574e-05
2.33728e-05
2.4519e-05
2.30611e-05
2.12423e-05
2.12587e-05
1.98686e-05
1.62316e-05
1.92495e-05
1.27244e-05
1.72018e-05
8.92793e-06
1.42942e-05
1.01885e-05
1.53475e-05
1.64822e-05
1.93827e-05
2.15419e-05
2.32072e-05
2.28781e-05
2.43535e-05
2.18374e-05
2.35264e-05
2.18111e-05
1.99122e-05
1.95135e-05
1.84015e-05
1.3382e-05
1.6723e-05
9.64479e-06
1.5796e-05
9.84253e-06
1.75832e-05
1.35194e-05
1.85189e-05
1.87837e-05
2.01232e-05
2.20019e-05
2.27508e-05
2.20933e-05
2.52464e-05
2.14809e-05
2.4091e-05
2.24895e-05
1.9762e-05
2.03841e-05
1.91917e-05
1.46756e-05
1.91729e-05
1.13478e-05
1.79594e-05
9.72182e-06
1.65638e-05
1.21729e-05
1.71584e-05
1.85364e-05
1.91129e-05
2.23196e-05
2.33084e-05
2.18299e-05
2.38647e-05
1.99624e-05
2.29893e-05
2.07939e-05
1.83055e-05
1.95057e-05
1.8195e-05
1.23463e-05
1.82125e-05
8.838e-06
1.75628e-05
8.9772e-06
1.77311e-05
1.26212e-05
1.73315e-05
1.87805e-05
1.8673e-05
2.17814e-05
2.1649e-05
2.03578e-05
2.50884e-05
2.02225e-05
2.41769e-05
2.15144e-05
1.85513e-05
2.04118e-05
1.88145e-05
1.29415e-05
1.98372e-05
9.99959e-06
1.92117e-05
9.61837e-06
1.85488e-05
1.27532e-05
1.78828e-05
1.97566e-05
1.89125e-05
2.31185e-05
2.27039e-05
2.08915e-05
2.40709e-05
1.72674e-05
2.29562e-05
2.0382e-05
1.5697e-05
1.99659e-05
1.79254e-05
1.03424e-05
1.93956e-05
7.09803e-06
1.8972e-05
7.42094e-06
1.82884e-05
1.11239e-05
1.61228e-05
1.93847e-05
1.64097e-05
2.18544e-05
2.10102e-05
1.78057e-05
2.51532e-05
1.83461e-05
2.46813e-05
2.07506e-05
1.68884e-05
2.10921e-05
1.83924e-05
1.06945e-05
2.13678e-05
7.71494e-06
2.10967e-05
8.04786e-06
2.02285e-05
1.19524e-05
1.79764e-05
2.06226e-05
1.77107e-05
2.40068e-05
2.19812e-05
1.94773e-05
2.41563e-05
1.40268e-05
2.37935e-05
1.92363e-05
1.23529e-05
2.11389e-05
1.74371e-05
6.62525e-06
2.11072e-05
3.59158e-06
2.0815e-05
4.23951e-06
1.92916e-05
8.31644e-06
1.46171e-05
1.96851e-05
1.35664e-05
2.25461e-05
1.94879e-05
1.47201e-05
2.58204e-05
1.54955e-05
2.56575e-05
1.978e-05
1.36874e-05
2.23955e-05
1.76893e-05
7.65556e-06
2.29514e-05
4.57545e-06
2.2819e-05
5.33114e-06
2.14782e-05
9.4631e-06
1.73875e-05
2.16349e-05
1.52233e-05
2.49636e-05
2.0811e-05
1.66269e-05
2.5089e-05
7.58497e-06
2.6396e-05
1.82535e-05
5.38941e-06
2.4356e-05
1.68448e-05
-1.25163e-06
2.46738e-05
-3.72886e-06
2.43282e-05
-2.66737e-06
2.17188e-05
1.89421e-06
1.20259e-05
2.10874e-05
7.47151e-06
2.46146e-05
1.78272e-05
8.76331e-06
2.62148e-05
1.03384e-05
2.75048e-05
1.76164e-05
8.19878e-06
2.50091e-05
1.59318e-05
1.69204e-06
2.51565e-05
-1.26903e-06
2.48629e-05
-2.00751e-07
2.26544e-05
4.18491e-06
1.55158e-05
2.18277e-05
1.01641e-05
2.6235e-05
1.79926e-05
1.17833e-05
2.82833e-05
-6.76419e-06
3.4072e-05
1.44179e-05
-1.19751e-05
3.40253e-05
1.38326e-05
-1.99369e-05
3.23843e-05
-2.06821e-05
3.13143e-05
-1.89725e-05
2.70519e-05
-1.40781e-05
6.78638e-06
2.45746e-05
-6.66852e-06
3.08994e-05
1.29158e-05
-5.60488e-06
-0.010987
-0.0105946
-0.0102888
-0.0100775
-0.00996113
-0.00994882
-0.0100699
-0.0103048
-0.0106477
-0.0110745
-0.0115626
-0.0120611
-0.0125068
-0.0128216
-0.0129549
-0.0129172
-0.0127165
-0.0123685
-0.0119231
-0.0114436
0.00232619
0.00228028
0.0021492
0.00198781
0.00183381
0.00174399
0.00167495
0.00158983
0.00146775
0.00131342
0.00111142
0.000888386
0.000699379
0.000605156
0.000667449
0.000935765
0.00131239
0.00170486
0.00203609
0.00225041
-0.00233645
-0.00210113
-0.00191574
-0.00178009
-0.00173077
-0.00178679
-0.00191449
-0.0020644
-0.00228243
-0.00253856
-0.00287001
-0.00322101
-0.00352361
-0.00369325
-0.0037297
-0.00365454
-0.00346615
-0.0031881
-0.00288644
-0.00259715
0.00291031
0.00297368
0.00299789
0.00301532
0.00302028
0.0030202
0.00295355
0.00287543
0.0027088
0.00251592
0.00218815
0.00181918
0.00151276
0.00138241
0.00150999
0.00176959
0.00210805
0.0024134
0.00264774
0.00281066
-0.000458598
-0.000310913
-0.000238014
-0.000191049
-0.000228567
-0.000244344
-0.000305715
-0.00035262
-0.000508098
-0.000704315
-0.00112501
-0.00163087
-0.00205873
-0.00228685
-0.00231015
-0.00212759
-0.00177022
-0.0013623
-0.00098128
-0.000674108
0.00202444
0.00212607
0.00217665
0.00222241
0.00221868
0.00220856
0.0021257
0.00205413
0.00185856
0.00163446
0.00112054
0.000583595
0.000208297
0.000148399
0.000363956
0.000721989
0.00110023
0.00142778
0.00169154
0.00188963
6.06515e-05
0.000104662
0.000108768
0.000112962
9.06021e-05
0.000112612
8.22496e-05
7.50032e-05
-7.18731e-05
-0.00028245
-0.000891035
-0.00153958
-0.00194216
-0.0019961
-0.00169889
-0.001245
-0.000786642
-0.000429661
-0.000177203
-2.09288e-05
0.00125597
0.00132612
0.00135885
0.00139285
0.00136834
0.00135445
0.0012774
0.00121145
0.00102326
0.000771406
0.000115623
-0.000489583
-0.000756667
-0.000571896
-0.000172675
0.000240297
0.000601668
0.000855778
0.00104166
0.00116895
0.000173774
0.0001836
0.000171166
0.000172267
0.000164775
0.000189049
0.000169172
0.00016438
4.11038e-05
-0.000181161
-0.000863768
-0.00150398
-0.00171875
-0.00145621
-0.000968723
-0.000552354
-0.000224433
-3.10348e-05
9.07547e-05
0.000150617
0.000743466
0.000783623
0.000799924
0.000815491
0.000792692
0.000777407
0.0007175
0.000662402
0.000518172
0.000290332
-0.000337121
-0.000847127
-0.000856257
-0.000556931
-0.000132873
0.000166551
0.000398591
0.000530515
0.000630965
0.000695529
0.000179025
0.000182787
0.00017253
0.000178237
0.000172872
0.000191193
0.000176552
0.000180543
9.87247e-05
-4.70229e-05
-0.000623441
-0.00115689
-0.00109765
-0.000794622
-0.000407473
-0.000171902
6.53655e-06
8.88914e-05
0.000147373
0.000170262
0.000436528
0.000457484
0.000463521
0.000469668
0.000450517
0.00043751
0.000393633
0.000357598
0.000265872
0.000139355
-0.000326249
-0.000619879
-0.00050674
-0.000239633
3.32951e-05
0.000170648
0.000283872
0.000332829
0.000382693
0.000411446
0.000155865
0.000160501
0.000155582
0.000162904
0.000158195
0.000173651
0.000164413
0.000190833
0.000156146
0.000180895
-0.000199748
-0.000575272
-0.000489168
-0.000328008
-0.0001175
-2.51203e-05
6.68822e-05
9.95045e-05
0.00013527
0.000147629
0.000262264
0.000272914
0.000273754
0.00027611
0.000259875
0.000249767
0.000216741
0.000198042
0.000150916
0.000142318
-8.04736e-05
-0.000198065
-0.000125544
-1.03216e-05
0.000111803
0.000143401
0.000195165
0.00020783
0.000235753
0.000248345
0.000127524
0.000133297
0.000132141
0.000139195
0.0001353
0.000148785
0.000144395
0.00018535
0.000191668
0.000365579
0.000228873
-0.000146373
-0.000154565
-0.000139836
-4.82525e-05
-1.03876e-05
5.47077e-05
7.59296e-05
0.00010676
0.000117691
0.000166167
0.000171882
0.000170709
0.000171404
0.000157762
0.00014936
0.000122332
0.000109806
7.8068e-05
0.000145087
0.000251639
8.32974e-06
-2.29398e-05
-1.5075e-05
5.42516e-05
6.77617e-05
0.00011497
0.000125817
0.000149144
0.000156852
0.000102669
0.000108159
0.000108639
0.000114263
0.000110956
0.000120338
0.000116543
0.000141315
0.000130459
0.000185718
0.000108641
-6.10592e-05
-5.50117e-05
-7.62966e-05
-1.4843e-05
-4.36213e-06
4.27462e-05
5.73129e-05
8.34166e-05
9.29077e-05
0.000114308
0.000117282
0.000115618
0.000115552
0.000104558
9.73629e-05
7.62725e-05
6.32578e-05
4.14086e-05
4.32996e-05
7.53014e-05
4.57454e-06
2.91017e-05
2.15212e-05
6.15664e-05
5.82082e-05
8.67203e-05
8.86114e-05
0.000104394
0.000108088
8.38031e-05
8.79608e-05
8.87538e-05
9.2574e-05
8.95639e-05
9.5096e-05
9.22681e-05
0.000104266
9.67821e-05
0.000106189
6.3407e-05
-2.57684e-05
-1.74726e-05
-4.13627e-05
2.9435e-07
3.54558e-06
3.81859e-05
4.77846e-05
6.82681e-05
7.5415e-05
8.58909e-05
8.73042e-05
8.58332e-05
8.53894e-05
7.68866e-05
7.09912e-05
5.5283e-05
4.32357e-05
2.73667e-05
1.71081e-05
3.10765e-05
8.91469e-06
3.95658e-05
3.09392e-05
5.91654e-05
5.14831e-05
7.0331e-05
6.89221e-05
7.98937e-05
8.14759e-05
7.06266e-05
7.31128e-05
7.37299e-05
7.59019e-05
7.28211e-05
7.55289e-05
7.30749e-05
7.75057e-05
7.37402e-05
7.00467e-05
4.88338e-05
-5.59409e-06
5.00429e-07
-1.95289e-05
9.78769e-06
1.08989e-05
3.6677e-05
4.33155e-05
5.89602e-05
6.37794e-05
6.98135e-05
7.01873e-05
6.92163e-05
6.85683e-05
6.21276e-05
5.76341e-05
4.63697e-05
3.61417e-05
2.57614e-05
1.41799e-05
2.2722e-05
1.40114e-05
4.07094e-05
3.28657e-05
5.37888e-05
4.64152e-05
5.9741e-05
5.78596e-05
6.58687e-05
6.64297e-05
6.19991e-05
6.27777e-05
6.32994e-05
6.40945e-05
6.09365e-05
6.17133e-05
5.92174e-05
5.91804e-05
5.81686e-05
5.016e-05
4.18024e-05
6.18039e-06
1.24203e-05
-2.85796e-06
1.84783e-05
1.86758e-05
3.74418e-05
4.21095e-05
5.36512e-05
5.65026e-05
6.06719e-05
5.99205e-05
5.96169e-05
5.87021e-05
5.35867e-05
5.03082e-05
4.3117e-05
3.41117e-05
2.87471e-05
1.76154e-05
2.4757e-05
1.81927e-05
3.9513e-05
3.20107e-05
4.84012e-05
4.28957e-05
5.26344e-05
5.15325e-05
5.75966e-05
5.74207e-05
5.66535e-05
5.57399e-05
5.65233e-05
5.63218e-05
5.29326e-05
5.27091e-05
5.01706e-05
4.71851e-05
4.82483e-05
3.88371e-05
3.79236e-05
1.37757e-05
2.1561e-05
1.00102e-05
2.60586e-05
2.59958e-05
3.90382e-05
4.25708e-05
5.08423e-05
5.19676e-05
5.54032e-05
5.34075e-05
5.39224e-05
5.25366e-05
4.82644e-05
4.63713e-05
4.14316e-05
3.35296e-05
3.28065e-05
2.11324e-05
2.93035e-05
2.07496e-05
3.82479e-05
3.11422e-05
4.40369e-05
4.07909e-05
4.7935e-05
4.80727e-05
5.25579e-05
5.18014e-05
5.32439e-05
5.10947e-05
5.25336e-05
5.11333e-05
4.79243e-05
4.72917e-05
4.51561e-05
3.97414e-05
4.27108e-05
3.2352e-05
3.67222e-05
1.90316e-05
2.86293e-05
1.88243e-05
3.18825e-05
3.18186e-05
4.06571e-05
4.37877e-05
4.91399e-05
4.92597e-05
5.25244e-05
4.85857e-05
5.0601e-05
4.86908e-05
4.45307e-05
4.37278e-05
4.04084e-05
3.27225e-05
3.582e-05
2.34293e-05
3.3193e-05
2.2463e-05
3.79327e-05
3.04863e-05
4.1453e-05
4.00895e-05
4.45546e-05
4.64271e-05
4.96188e-05
4.80544e-05
5.19188e-05
4.76675e-05
5.04115e-05
4.77731e-05
4.41635e-05
4.48624e-05
4.21382e-05
3.51558e-05
4.13212e-05
2.82044e-05
3.78219e-05
2.15432e-05
3.38698e-05
2.48317e-05
3.55082e-05
3.65193e-05
4.15461e-05
4.52287e-05
4.80386e-05
4.69381e-05
5.04454e-05
4.50142e-05
4.89048e-05
4.56734e-05
4.18388e-05
4.22658e-05
3.99259e-05
3.07597e-05
3.81285e-05
2.37108e-05
3.64518e-05
2.29522e-05
3.87665e-05
2.9511e-05
3.9845e-05
3.99353e-05
4.23141e-05
4.59966e-05
4.72276e-05
4.55083e-05
5.16565e-05
4.39702e-05
4.96211e-05
4.62621e-05
4.11003e-05
4.33099e-05
4.07732e-05
3.18814e-05
4.16523e-05
2.5476e-05
3.97872e-05
2.26547e-05
3.7806e-05
2.78226e-05
3.81525e-05
4.00546e-05
4.07937e-05
4.67129e-05
4.78789e-05
4.48059e-05
4.98069e-05
4.13114e-05
4.8145e-05
4.36411e-05
3.85582e-05
4.21179e-05
3.9239e-05
2.80943e-05
4.0711e-05
2.15395e-05
3.98043e-05
2.1409e-05
3.97728e-05
2.82915e-05
3.83192e-05
4.06592e-05
3.9846e-05
4.61837e-05
4.54174e-05
4.2366e-05
5.15876e-05
4.1006e-05
4.98927e-05
4.43431e-05
3.82419e-05
4.34701e-05
3.98926e-05
2.8127e-05
4.3305e-05
2.23724e-05
4.2578e-05
2.18404e-05
4.1348e-05
2.82668e-05
3.90669e-05
4.23815e-05
3.98059e-05
4.83211e-05
4.66823e-05
4.25979e-05
5.03256e-05
3.62036e-05
4.8444e-05
4.24911e-05
3.35961e-05
4.31091e-05
3.84724e-05
2.37111e-05
4.32061e-05
1.75588e-05
4.28663e-05
1.81863e-05
4.13948e-05
2.55377e-05
3.6492e-05
4.21226e-05
3.58039e-05
4.6877e-05
4.40747e-05
3.77617e-05
5.2002e-05
3.67579e-05
5.11423e-05
4.26672e-05
3.42842e-05
4.50341e-05
3.88732e-05
2.30847e-05
4.64929e-05
1.72726e-05
4.64538e-05
1.81387e-05
4.45549e-05
2.59872e-05
3.8844e-05
4.41575e-05
3.6873e-05
5.02171e-05
4.50802e-05
3.92782e-05
5.08566e-05
2.97503e-05
5.03988e-05
4.01953e-05
2.69545e-05
4.56674e-05
3.72707e-05
1.62195e-05
4.68464e-05
1.03022e-05
4.68152e-05
1.17527e-05
4.375e-05
1.99928e-05
3.39313e-05
4.31216e-05
3.02347e-05
4.8623e-05
4.1176e-05
3.18143e-05
5.34646e-05
3.03222e-05
5.36183e-05
4.04744e-05
2.72395e-05
4.81957e-05
3.72455e-05
1.5883e-05
5.02561e-05
9.89166e-06
5.0468e-05
1.16639e-05
4.7386e-05
2.01697e-05
3.73174e-05
4.61818e-05
3.12128e-05
5.25318e-05
4.24415e-05
3.31481e-05
5.2802e-05
1.78505e-05
5.55115e-05
3.77867e-05
1.41225e-05
5.20015e-05
3.56041e-05
1.70869e-06
5.36726e-05
-3.47169e-06
5.35347e-05
-1.14872e-06
4.83599e-05
8.06704e-06
2.94479e-05
4.5728e-05
1.90408e-05
5.27087e-05
3.7549e-05
2.09079e-05
5.48607e-05
1.95027e-05
5.81962e-05
3.62214e-05
1.55909e-05
5.43568e-05
3.37686e-05
3.09774e-06
5.56377e-05
-2.68448e-06
5.5507e-05
-2.0054e-07
5.05513e-05
8.93398e-06
3.35716e-05
4.72914e-05
2.07094e-05
5.58985e-05
3.69273e-05
2.30823e-05
5.81344e-05
-5.05519e-06
6.85118e-05
3.11236e-05
-1.3267e-05
6.84305e-05
3.03288e-05
-2.79155e-05
6.69534e-05
-3.07364e-05
6.56385e-05
-2.72755e-05
5.7436e-05
-1.7417e-05
2.1385e-05
5.15618e-05
-3.38967e-06
6.32257e-05
2.89528e-05
-1.63824e-06
-0.0135298
-0.0129809
-0.0125317
-0.0122041
-0.0120122
-0.0119859
-0.0121413
-0.0124567
-0.0129214
-0.0134995
-0.0141547
-0.0148185
-0.0154097
-0.0158338
-0.0160272
-0.0159975
-0.0157564
-0.0153253
-0.0147627
-0.0141416
0.00193435
0.00199124
0.00192504
0.00179067
0.00163342
0.00151833
0.00138219
0.00120737
0.000972628
0.000687735
0.000341638
-2.52902e-05
-0.00033703
-0.000510505
-0.000465361
-0.000152151
0.000325959
0.000859893
0.00135103
0.00172254
-0.00274643
-0.00243868
-0.0022224
-0.0020874
-0.00207337
-0.00218087
-0.00237772
-0.00261761
-0.00295225
-0.00334973
-0.0038494
-0.00437152
-0.00481349
-0.00505166
-0.00507943
-0.00489743
-0.00453538
-0.00405838
-0.00356796
-0.003122
0.00338187
0.00345932
0.00347788
0.00348062
0.00345802
0.00341395
0.00328829
0.00313284
0.00285455
0.00251838
0.00200375
0.00145081
0.00102382
0.00088784
0.0011375
0.00158356
0.00213141
0.00262097
0.00299163
0.00323991
-0.000285188
-0.000126174
-5.51138e-05
-1.88275e-05
-7.96866e-05
-0.00012082
-0.000230623
-0.000344177
-0.000611107
-0.000961851
-0.00160211
-0.0023155
-0.00284474
-0.00304784
-0.00291548
-0.00251675
-0.00195099
-0.00138187
-0.000895911
-0.000529301
0.00247798
0.00259718
0.00265323
0.00269988
0.00267698
0.00264354
0.00251212
0.00237514
0.00206422
0.00167625
0.000918579
0.000183571
-0.000249136
-0.000193998
0.000213634
0.00077118
0.00130836
0.0017436
0.00207581
0.00231682
0.000290884
0.000348657
0.00035566
0.000357961
0.000326107
0.000334315
0.000266352
0.000205512
-5.07358e-05
-0.000428879
-0.00130562
-0.00214893
-0.00257551
-0.00248179
-0.00197891
-0.00134314
-0.000752253
-0.000310958
-3.78706e-06
0.000187813
0.00158489
0.00167349
0.00171335
0.00174989
0.00171288
0.00168295
0.00156689
0.0014468
0.00115078
0.000728913
-0.000200173
-0.000970995
-0.00120056
-0.000857829
-0.000266443
0.000288734
0.000752444
0.00107368
0.00130923
0.00147254
0.000370701
0.000392115
0.000381876
0.000385356
0.000369839
0.000385565
0.000336366
0.000289363
7.14574e-05
-0.000312701
-0.00126945
-0.00205866
-0.0022
-0.00176823
-0.00110772
-0.000574989
-0.0001634
8.29853e-05
0.000244244
0.00033063
0.000967427
0.00102024
0.00104049
0.00105745
0.00102545
0.000999553
0.00091066
0.000815485
0.000585671
0.000209205
-0.000674623
-0.00129123
-0.001201
-0.000747709
-0.000183052
0.000203778
0.000502632
0.000677401
0.000812949
0.000902098
0.000329513
0.000341337
0.00033227
0.000340404
0.000328765
0.000342064
0.0003066
0.000283516
0.000133293
-0.000135303
-0.000946343
-0.00156717
-0.001396
-0.000963002
-0.000461258
-0.00016089
7.02774e-05
0.000184073
0.000269295
0.00030926
0.000586655
0.000615424
0.000623114
0.000630382
0.000604116
0.000584632
0.000521073
0.000461
0.000313401
8.7001e-05
-0.000576054
-0.00091044
-0.000694947
-0.000325344
3.16309e-05
0.000211624
0.000364267
0.0004358
0.000507744
0.000550841
0.000266205
0.000276533
0.000272396
0.000281866
0.000272398
0.000285919
0.000263681
0.000279677
0.000206662
0.000171448
-0.000374024
-0.000792604
-0.000621614
-0.000393164
-0.00011944
5.54275e-07
0.00012409
0.000173173
0.000226898
0.000249917
0.000364335
0.000379956
0.000381382
0.000384779
0.000362995
0.000349326
0.000303458
0.00027425
0.000198541
0.000146877
-0.000189882
-0.000322433
-0.00018565
-2.69238e-05
0.000136442
0.000181888
0.00025655
0.000279918
0.000322384
0.000343399
0.000208014
0.000218006
0.000217465
0.000226387
0.000218864
0.000232301
0.000220328
0.000262059
0.000254079
0.000423664
0.000205028
-0.000227921
-0.000194073
-0.000162124
-3.66728e-05
1.1144e-05
9.83559e-05
0.000129298
0.000173779
0.000192009
0.000238199
0.000247292
0.000246287
0.000247878
0.000229775
0.000219291
0.00018312
0.000166709
0.000120672
0.000188051
0.000272718
-3.08656e-05
-4.1225e-05
-2.51313e-05
7.11412e-05
9.17624e-05
0.000157836
0.000175718
0.000210417
0.000223749
0.000162744
0.00017133
0.000172244
0.000179324
0.000173082
0.000182717
0.000173588
0.000199918
0.000179855
0.000239169
0.000132106
-8.80829e-05
-6.9119e-05
-9.18566e-05
-6.22497e-06
9.34851e-06
7.47349e-05
9.62133e-05
0.000133367
0.000148123
0.000168004
0.000173269
0.000171594
0.000172194
0.000157574
0.00014886
0.000120846
0.000104902
7.37274e-05
7.41045e-05
9.73965e-05
-5.63521e-06
3.07122e-05
2.0388e-05
7.89577e-05
7.74275e-05
0.00012008
0.000126055
0.00015052
0.000157938
0.000130644
0.000136905
0.000137928
0.000142727
0.000137224
0.000142756
0.000135895
0.00014801
0.000134464
0.000142455
8.56127e-05
-3.37916e-05
-1.73133e-05
-4.70607e-05
1.15583e-05
1.66538e-05
6.50212e-05
7.89104e-05
0.000107828
0.000118537
0.000128447
0.000131306
0.000129744
0.000129699
0.000118244
0.000111106
9.01698e-05
7.52111e-05
5.28925e-05
3.85516e-05
4.83443e-05
9.58395e-06
5.01882e-05
3.66976e-05
7.82293e-05
6.9929e-05
9.9051e-05
9.97685e-05
0.000117198
0.000121136
0.000109143
0.000112863
0.00011356
0.000116257
0.000110968
0.00011339
0.000107758
0.000111161
0.00010351
9.60472e-05
6.81765e-05
-4.55262e-06
8.11724e-06
-1.77931e-05
2.39383e-05
2.53231e-05
6.12542e-05
7.0483e-05
9.24059e-05
9.94722e-05
0.0001056
0.0001067
0.000105646
0.000105127
9.62507e-05
9.07358e-05
7.55918e-05
6.25334e-05
4.80613e-05
3.17213e-05
3.88047e-05
2.03356e-05
5.54228e-05
4.28252e-05
7.36753e-05
6.5004e-05
8.59054e-05
8.52013e-05
9.80152e-05
9.99822e-05
9.5411e-05
9.66387e-05
9.72126e-05
9.81256e-05
9.29604e-05
9.32792e-05
8.8235e-05
8.64552e-05
8.32536e-05
7.08316e-05
6.00119e-05
1.25778e-05
2.46482e-05
4.38173e-06
3.50848e-05
3.49581e-05
6.11482e-05
6.74523e-05
8.35865e-05
8.77056e-05
9.24087e-05
9.16848e-05
9.14202e-05
9.03486e-05
8.31278e-05
7.90504e-05
6.90783e-05
5.72861e-05
4.98368e-05
3.39199e-05
4.1496e-05
2.79721e-05
5.63845e-05
4.46313e-05
6.87489e-05
6.20684e-05
7.74024e-05
7.71481e-05
8.67645e-05
8.72783e-05
8.70255e-05
8.58052e-05
8.67882e-05
8.63371e-05
8.10522e-05
8.03776e-05
7.5786e-05
7.05508e-05
7.08857e-05
5.68541e-05
5.61651e-05
2.36801e-05
3.70504e-05
2.13126e-05
4.46435e-05
4.41782e-05
6.25103e-05
6.72621e-05
7.88104e-05
8.04478e-05
8.4773e-05
8.20856e-05
8.29198e-05
8.10408e-05
7.48509e-05
7.24688e-05
6.54584e-05
5.47259e-05
5.37013e-05
3.70849e-05
4.73107e-05
3.27344e-05
5.65997e-05
4.56662e-05
6.479e-05
6.08077e-05
7.19842e-05
7.30155e-05
8.00213e-05
7.93904e-05
8.18561e-05
7.86474e-05
8.06593e-05
7.85858e-05
7.35501e-05
7.26614e-05
6.88707e-05
6.07074e-05
6.43668e-05
4.9024e-05
5.57148e-05
3.1267e-05
4.65738e-05
3.29348e-05
5.19503e-05
5.16775e-05
6.41142e-05
6.84657e-05
7.59853e-05
7.60534e-05
8.06031e-05
7.50878e-05
7.79852e-05
7.51829e-05
6.91029e-05
6.8241e-05
6.3293e-05
5.24933e-05
5.69797e-05
3.91425e-05
5.2555e-05
3.58239e-05
5.75848e-05
4.6364e-05
6.26565e-05
6.10926e-05
6.81658e-05
7.13082e-05
7.61123e-05
7.41517e-05
7.96657e-05
7.33829e-05
7.73922e-05
7.35794e-05
6.80206e-05
6.90368e-05
6.47916e-05
5.44855e-05
6.30333e-05
4.39853e-05
5.80008e-05
3.5053e-05
5.37206e-05
4.07478e-05
5.65582e-05
5.78185e-05
6.49146e-05
7.02295e-05
7.4204e-05
7.25046e-05
7.78425e-05
6.9797e-05
7.54859e-05
7.08049e-05
6.48842e-05
6.59548e-05
6.21632e-05
4.91935e-05
5.98736e-05
3.88763e-05
5.71918e-05
3.69057e-05
5.96756e-05
4.61399e-05
6.14063e-05
6.18848e-05
6.55067e-05
7.11626e-05
7.30551e-05
7.0462e-05
7.90792e-05
6.8001e-05
7.61347e-05
7.10508e-05
6.34709e-05
6.69326e-05
6.28616e-05
4.97764e-05
6.39715e-05
4.03213e-05
6.13394e-05
3.65628e-05
5.92009e-05
4.45556e-05
5.98104e-05
6.25474e-05
6.37215e-05
7.22132e-05
7.36201e-05
6.92592e-05
7.70034e-05
6.44013e-05
7.44771e-05
6.7815e-05
6.0059e-05
6.56175e-05
6.1023e-05
4.50206e-05
6.33698e-05
3.55638e-05
6.20169e-05
3.5059e-05
6.18361e-05
4.49978e-05
5.99631e-05
6.35067e-05
6.23182e-05
7.18087e-05
7.06708e-05
6.60512e-05
7.89979e-05
6.33287e-05
7.6467e-05
6.82665e-05
5.90044e-05
6.71991e-05
6.15648e-05
4.42645e-05
6.66337e-05
3.57659e-05
6.56643e-05
3.51638e-05
6.4122e-05
4.48383e-05
6.08274e-05
6.58337e-05
6.1912e-05
7.4452e-05
7.18543e-05
6.57319e-05
7.76566e-05
5.72173e-05
7.50309e-05
6.58923e-05
5.31019e-05
6.70214e-05
5.9823e-05
3.85398e-05
6.70548e-05
2.96726e-05
6.66457e-05
3.05547e-05
6.46173e-05
4.13708e-05
5.78229e-05
6.58035e-05
5.69176e-05
7.31056e-05
6.86529e-05
5.97129e-05
7.96348e-05
5.68476e-05
7.82897e-05
6.57439e-05
5.28679e-05
6.95058e-05
6.00513e-05
3.6727e-05
7.1266e-05
2.82704e-05
7.13062e-05
2.96599e-05
6.8637e-05
4.12298e-05
6.02247e-05
6.84102e-05
5.73792e-05
7.71504e-05
6.94214e-05
6.05401e-05
7.84889e-05
4.802e-05
7.78599e-05
6.26226e-05
4.36695e-05
7.07073e-05
5.80331e-05
2.78984e-05
7.23311e-05
1.93402e-05
7.24334e-05
2.15314e-05
6.82052e-05
3.36629e-05
5.44576e-05
6.74876e-05
4.91197e-05
7.57257e-05
6.46103e-05
5.13217e-05
8.15925e-05
4.72591e-05
8.19807e-05
6.24794e-05
4.24912e-05
7.42141e-05
5.76766e-05
2.58526e-05
7.69012e-05
1.72601e-05
7.73194e-05
1.99859e-05
7.2807e-05
3.25804e-05
5.77535e-05
7.12365e-05
4.89914e-05
8.0554e-05
6.54714e-05
5.15284e-05
8.10253e-05
3.20704e-05
8.47377e-05
5.90092e-05
2.65026e-05
7.92995e-05
5.55066e-05
8.52121e-06
8.15222e-05
8.49618e-07
8.15238e-05
4.30346e-06
7.43651e-05
1.7765e-05
4.84988e-05
7.0932e-05
3.42301e-05
8.12031e-05
5.93394e-05
3.67079e-05
8.36221e-05
3.21637e-05
8.85881e-05
5.67047e-05
2.61646e-05
8.30297e-05
5.30224e-05
7.88357e-06
8.47133e-05
-3.54524e-07
8.46951e-05
3.40738e-06
7.74753e-05
1.69033e-05
5.2427e-05
7.30997e-05
3.44452e-05
8.54483e-05
5.79358e-05
3.747e-05
8.72215e-05
4.29963e-06
0.000100642
5.06132e-05
-6.50129e-06
9.95069e-05
4.89362e-05
-2.72372e-05
9.79376e-05
-3.2201e-05
9.65421e-05
-2.73103e-05
8.5373e-05
-1.30465e-05
3.84743e-05
7.79158e-05
7.14474e-06
9.38474e-05
4.83576e-05
9.55528e-06
-0.0149498
-0.0143248
-0.013811
-0.0134358
-0.013222
-0.0132059
-0.0133951
-0.0137673
-0.0143089
-0.0149766
-0.0157259
-0.0164776
-0.0171395
-0.0176078
-0.0178141
-0.0177671
-0.0174816
-0.016986
-0.0163465
-0.0156431
0.00141562
0.00152447
0.00149526
0.00138191
0.00123485
0.00111135
0.00093501
0.000702852
0.000392752
2.06778e-05
-0.000418891
-0.000873689
-0.00125308
-0.00146173
-0.00140892
-0.00105285
-0.000506985
0.000109718
0.000686363
0.00113705
-0.00310468
-0.00274857
-0.00250907
-0.00237062
-0.00238099
-0.00252211
-0.00276676
-0.00307152
-0.00349014
-0.0039846