/*--------------------------------*- C++ -*----------------------------------*\
| =========                 |                                                 |
| \\      /  F ield         | OpenFOAM: The Open Source CFD Toolbox           |
|  \\    /   O peration     | Version:  2.4.0                                 |
|   \\  /    A nd           | Web:      www.OpenFOAM.org                      |
|    \\/     M anipulation  |                                                 |
\*---------------------------------------------------------------------------*/
FoamFile
{
    version     2.0;
    format      ascii;
    class       volScalarField;
    location    "590";
    object      p;
}
// * * * * * * * * * * * * * * * * * * * * * * * * * * * * * * * * * * * * * //

dimensions      [0 2 -2 0 0 0 0];

internalField   nonuniform List<scalar> 
283312
(
-0.00626967
-0.0063279
-0.00656744
-0.00690831
-0.00726253
-0.00756092
-0.00779532
-0.00796021
-0.00808774
-0.00820118
-0.00832057
-0.00843245
-0.00850475
-0.00848175
-0.00833033
-0.00805763
-0.00767444
-0.00721778
-0.00676903
-0.00642654
0.00215302
0.00164904
0.0012207
0.000949323
0.000848039
0.000911878
0.0010535
0.00119349
0.00130364
0.00139135
0.00145893
0.0015381
0.00166688
0.00186792
0.00215448
0.00252555
0.00284274
0.002996
0.00292132
0.00261713
-0.00230081
-0.00215171
-0.00192999
-0.00169102
-0.00149974
-0.00140375
-0.00138649
-0.00139416
-0.00144479
-0.00148823
-0.00152019
-0.00149979
-0.0014278
-0.00132601
-0.00127675
-0.00137923
-0.00161517
-0.00190582
-0.00216623
-0.00230978
0.00148385
0.00165528
0.00179832
0.00191272
0.00199554
0.00206393
0.00207047
0.00207637
0.00204246
0.0020523
0.00206867
0.00211613
0.00214698
0.00210886
0.00198639
0.00174982
0.00150245
0.0013196
0.00126412
0.00133651
-0.00074404
-0.000546411
-0.000430212
-0.000352487
-0.000349718
-0.00033759
-0.000349739
-0.000336784
-0.000367541
-0.000345683
-0.000356127
-0.000412017
-0.000585806
-0.000895974
-0.00131417
-0.00165029
-0.00174221
-0.00160442
-0.00132277
-0.00100899
0.00120487
0.00131405
0.00137166
0.00141707
0.00143067
0.00143786
0.00140322
0.00138989
0.00132509
0.00133389
0.00127645
0.00115174
0.000879246
0.00052606
0.000265011
0.000194599
0.000321323
0.000562112
0.000825881
0.00104855
-0.000150001
-0.000110693
-0.00010395
-9.83287e-05
-0.00010973
-8.47607e-05
-8.5276e-05
-5.68132e-05
-8.85926e-05
-6.48305e-05
-0.000182337
-0.00045525
-0.000865878
-0.00126904
-0.00140012
-0.00124843
-0.000936737
-0.000624508
-0.000382325
-0.00022934
0.000764024
0.000812903
0.000836287
0.000861069
0.000849276
0.000845593
0.000807961
0.000787483
0.000718424
0.000707487
0.000546883
0.000231519
-0.000173217
-0.000362316
-0.000309426
-7.78778e-05
0.00020657
0.00043331
0.000595521
0.000699023
1.35342e-07
1.74498e-06
-9.23911e-06
-1.09281e-05
-1.23717e-05
9.55835e-06
1.14042e-05
3.13297e-05
3.49516e-06
6.60463e-06
-0.000188938
-0.000597219
-0.00100264
-0.00108572
-0.000870692
-0.000579546
-0.000314734
-0.000150324
-5.41791e-05
-1.20392e-05
0.000441906
0.000466395
0.000477119
0.000487549
0.000474681
0.000466265
0.000435816
0.000413473
0.000360087
0.000342689
0.000161459
-0.000210355
-0.000462712
-0.000448514
-0.000215765
9.75442e-06
0.000194597
0.000300039
0.000370878
0.000412517
4.42277e-05
4.21405e-05
3.3219e-05
3.50458e-05
3.42902e-05
4.93466e-05
4.97033e-05
6.60085e-05
4.88417e-05
7.34393e-05
-0.000104178
-0.000534982
-0.000716941
-0.000634374
-0.000390586
-0.000205285
-6.71557e-05
-4.11898e-06
3.2814e-05
4.3443e-05
0.00025118
0.000262898
0.000266678
0.0002698
0.000258616
0.000249844
0.00022624
0.000208635
0.000173231
0.00019217
5.50965e-05
-0.000227737
-0.000332351
-0.000226191
-4.54216e-05
6.89698e-05
0.00015473
0.00019121
0.000221406
0.000237335
5.52018e-05
5.51343e-05
5.06209e-05
5.40513e-05
5.28549e-05
6.41183e-05
6.37561e-05
8.73103e-05
8.39326e-05
0.000190267
7.55082e-05
-0.000272253
-0.000356329
-0.000290628
-0.000145006
-6.32328e-05
4.77605e-06
2.88344e-05
4.88227e-05
5.33969e-05
0.000145651
0.00015081
0.000150997
0.000151281
0.000141496
0.000133703
0.000114545
0.000102374
8.17156e-05
0.000139061
9.8102e-05
-5.16266e-05
-0.000108758
-5.34791e-05
3.3675e-05
7.06514e-05
0.000108287
0.000118097
0.000133054
0.000138845
5.29566e-05
5.46556e-05
5.31633e-05
5.6707e-05
5.5497e-05
6.44766e-05
6.47666e-05
9.32959e-05
0.000105262
0.000280153
0.000267023
-5.0658e-05
-0.000137032
-0.000139588
-7.50615e-05
-3.47151e-05
1.12348e-05
2.69878e-05
4.41446e-05
4.90253e-05
8.91144e-05
9.13083e-05
9.00907e-05
8.92992e-05
8.09524e-05
7.4072e-05
5.76971e-05
4.70747e-05
2.9004e-05
8.60742e-05
0.0001959
3.70519e-05
-1.94132e-05
-1.94079e-05
2.15357e-05
3.49288e-05
6.34511e-05
7.0248e-05
8.19786e-05
8.5039e-05
4.63834e-05
4.85724e-05
4.84684e-05
5.1298e-05
5.01918e-05
5.61809e-05
5.59795e-05
7.23529e-05
6.84953e-05
0.000106984
6.64689e-05
-3.07779e-05
-4.0142e-05
-5.48691e-05
-2.08984e-05
-1.1912e-05
1.47773e-05
2.3516e-05
3.72796e-05
4.18352e-05
5.95421e-05
6.02856e-05
5.87804e-05
5.76843e-05
5.09584e-05
4.50839e-05
3.2284e-05
2.18683e-05
9.77241e-06
9.09245e-06
4.07773e-05
9.83027e-06
1.88944e-05
1.65481e-05
3.63669e-05
3.51581e-05
4.91102e-05
4.92245e-05
5.62357e-05
5.71444e-05
3.9586e-05
4.14061e-05
4.16892e-05
4.35376e-05
4.24339e-05
4.58665e-05
4.5814e-05
5.3874e-05
5.14647e-05
5.81527e-05
3.35677e-05
-1.54751e-05
-1.68325e-05
-3.05282e-05
-8.36475e-06
-4.55732e-06
1.45906e-05
2.06574e-05
3.1623e-05
3.53758e-05
4.37967e-05
4.3894e-05
4.26011e-05
4.15064e-05
3.63612e-05
3.16339e-05
2.21412e-05
1.32276e-05
4.42179e-06
-2.43861e-06
1.1555e-05
6.41641e-06
2.27474e-05
2.05352e-05
3.41698e-05
3.02793e-05
3.89021e-05
3.74292e-05
4.21041e-05
4.21975e-05
3.41208e-05
3.52205e-05
3.54734e-05
3.6424e-05
3.5114e-05
3.67184e-05
3.64945e-05
3.97673e-05
3.90721e-05
3.7845e-05
2.53899e-05
-5.23315e-06
-6.21059e-06
-1.71483e-05
-1.94443e-06
4.36155e-07
1.47172e-05
1.92824e-05
2.78203e-05
3.05378e-05
3.50631e-05
3.48384e-05
3.3945e-05
3.29663e-05
2.91546e-05
2.55992e-05
1.88305e-05
1.17232e-05
5.84272e-06
-9.17123e-07
6.80695e-06
6.97619e-06
2.18222e-05
1.97555e-05
2.9818e-05
2.60926e-05
3.20267e-05
3.05792e-05
3.39892e-05
3.38447e-05
3.02547e-05
3.05454e-05
3.07469e-05
3.09607e-05
2.94884e-05
2.98321e-05
2.91989e-05
2.96644e-05
3.00579e-05
2.61775e-05
2.10643e-05
7.85392e-07
1.06843e-06
-6.94521e-06
3.9028e-06
5.4499e-06
1.5848e-05
1.92371e-05
2.5604e-05
2.73442e-05
3.01482e-05
2.95192e-05
2.90784e-05
2.81549e-05
2.52092e-05
2.2613e-05
1.84064e-05
1.24988e-05
9.31021e-06
3.23373e-06
8.50155e-06
8.23244e-06
2.00086e-05
1.76112e-05
2.55629e-05
2.28956e-05
2.7246e-05
2.64449e-05
2.91232e-05
2.8811e-05
2.77344e-05
2.7206e-05
2.75199e-05
2.72576e-05
2.55553e-05
2.52107e-05
2.42463e-05
2.28777e-05
2.39368e-05
1.92592e-05
1.82224e-05
4.72352e-06
6.75265e-06
9.89598e-07
9.0161e-06
1.00767e-05
1.72708e-05
1.98437e-05
2.44597e-05
2.52721e-05
2.72915e-05
2.61703e-05
2.61934e-05
2.51849e-05
2.28048e-05
2.12051e-05
1.83582e-05
1.3519e-05
1.28518e-05
6.62508e-06
1.15806e-05
9.01742e-06
1.84064e-05
1.58808e-05
2.20738e-05
2.06808e-05
2.39771e-05
2.39811e-05
2.60763e-05
2.56201e-05
2.59869e-05
2.49973e-05
2.55821e-05
2.47119e-05
2.31236e-05
2.24063e-05
2.15317e-05
1.86809e-05
2.02996e-05
1.52306e-05
1.69628e-05
7.57571e-06
1.1137e-05
6.40936e-06
1.29335e-05
1.36539e-05
1.85877e-05
2.06957e-05
2.37135e-05
2.40459e-05
2.56855e-05
2.36321e-05
2.44619e-05
2.33673e-05
2.10903e-05
2.01358e-05
1.83248e-05
1.39512e-05
1.5197e-05
8.86358e-06
1.39797e-05
9.66639e-06
1.75656e-05
1.46409e-05
1.9907e-05
1.95016e-05
2.15964e-05
2.26073e-05
2.42777e-05
2.34727e-05
2.53571e-05
2.33725e-05
2.45187e-05
2.30608e-05
2.1242e-05
2.12585e-05
1.98684e-05
1.62315e-05
1.92493e-05
1.27243e-05
1.72015e-05
8.92774e-06
1.42939e-05
1.01882e-05
1.53471e-05
1.64818e-05
1.93822e-05
2.15415e-05
2.32067e-05
2.28777e-05
2.43532e-05
2.18371e-05
2.35261e-05
2.18109e-05
1.9912e-05
1.95134e-05
1.84013e-05
1.33819e-05
1.67228e-05
9.64469e-06
1.57958e-05
9.84234e-06
1.75829e-05
1.35191e-05
1.85185e-05
1.87833e-05
2.01227e-05
2.20015e-05
2.27504e-05
2.2093e-05
2.52461e-05
2.14806e-05
2.40907e-05
2.24893e-05
1.97618e-05
2.0384e-05
1.91916e-05
1.46755e-05
1.91728e-05
1.13477e-05
1.79593e-05
9.72168e-06
1.65635e-05
1.21726e-05
1.7158e-05
1.8536e-05
1.91125e-05
2.23192e-05
2.3308e-05
2.18295e-05
2.38644e-05
1.99621e-05
2.29891e-05
2.07937e-05
1.83053e-05
1.95056e-05
1.81949e-05
1.23463e-05
1.82123e-05
8.83798e-06
1.75626e-05
8.97707e-06
1.77308e-05
1.26209e-05
1.73312e-05
1.87802e-05
1.86726e-05
2.1781e-05
2.16487e-05
2.03574e-05
2.50881e-05
2.02222e-05
2.41767e-05
2.15142e-05
1.85511e-05
2.04118e-05
1.88144e-05
1.29415e-05
1.9837e-05
9.99961e-06
1.92115e-05
9.61828e-06
1.85485e-05
1.2753e-05
1.78825e-05
1.97563e-05
1.89121e-05
2.31181e-05
2.27036e-05
2.08911e-05
2.40706e-05
1.72671e-05
2.2956e-05
2.03818e-05
1.56969e-05
1.99659e-05
1.79253e-05
1.03424e-05
1.93955e-05
7.09807e-06
1.89719e-05
7.42086e-06
1.82882e-05
1.11237e-05
1.61225e-05
1.93844e-05
1.64093e-05
2.18542e-05
2.10099e-05
1.78053e-05
2.51529e-05
1.83458e-05
2.46811e-05
2.07504e-05
1.68883e-05
2.1092e-05
1.83924e-05
1.06946e-05
2.13678e-05
7.71503e-06
2.10966e-05
8.04782e-06
2.02283e-05
1.19522e-05
1.79761e-05
2.06223e-05
1.77102e-05
2.40065e-05
2.19809e-05
1.94768e-05
2.41561e-05
1.40265e-05
2.37934e-05
1.92361e-05
1.23528e-05
2.11388e-05
1.7437e-05
6.62537e-06
2.11071e-05
3.59168e-06
2.08149e-05
4.23947e-06
1.92915e-05
8.31625e-06
1.46168e-05
1.96849e-05
1.3566e-05
2.25458e-05
1.94876e-05
1.47197e-05
2.58202e-05
1.54952e-05
2.56574e-05
1.97798e-05
1.36873e-05
2.23955e-05
1.76893e-05
7.65571e-06
2.29514e-05
4.57558e-06
2.28189e-05
5.33113e-06
2.14781e-05
9.46292e-06
1.73872e-05
2.16347e-05
1.52229e-05
2.49633e-05
2.08107e-05
1.66265e-05
2.50889e-05
7.5846e-06
2.63959e-05
1.82534e-05
5.38934e-06
2.43559e-05
1.68447e-05
-1.25144e-06
2.46736e-05
-3.7287e-06
2.43281e-05
-2.66739e-06
2.17186e-05
1.89401e-06
1.20256e-05
2.10873e-05
7.47105e-06
2.46145e-05
1.7827e-05
8.76284e-06
2.62147e-05
1.0338e-05
2.75047e-05
1.76162e-05
8.19871e-06
2.50091e-05
1.59317e-05
1.69223e-06
2.51564e-05
-1.26886e-06
2.48628e-05
-2.00752e-07
2.26543e-05
4.18472e-06
1.55156e-05
2.18275e-05
1.01637e-05
2.62348e-05
1.79923e-05
1.17828e-05
2.82834e-05
-6.76466e-06
3.4072e-05
1.44178e-05
-1.19751e-05
3.40251e-05
1.38325e-05
-1.99366e-05
3.23839e-05
-2.06819e-05
3.1314e-05
-1.89725e-05
2.70517e-05
-1.40784e-05
6.78619e-06
2.45747e-05
-6.66912e-06
3.08995e-05
1.29157e-05
-5.60556e-06
-0.0109867
-0.0105943
-0.0102885
-0.0100772
-0.00996085
-0.00994853
-0.0100696
-0.0103045
-0.0106474
-0.0110741
-0.0115623
-0.0120607
-0.0125065
-0.0128214
-0.0129547
-0.012917
-0.0127163
-0.0123682
-0.0119229
-0.0114433
0.00232623
0.00228033
0.00214924
0.00198784
0.00183385
0.00174402
0.00167498
0.00158986
0.00146778
0.00131345
0.00111144
0.000888404
0.000699388
0.000605156
0.000667437
0.000935743
0.00131237
0.00170486
0.00203611
0.00225044
-0.00233638
-0.00210105
-0.00191565
-0.00178
-0.00173067
-0.00178669
-0.00191438
-0.00206429
-0.00228232
-0.00253845
-0.0028699
-0.00322091
-0.00352353
-0.00369319
-0.00372966
-0.0036545
-0.00346611
-0.00318805
-0.0028864
-0.00259709
0.00291026
0.00297364
0.00299785
0.00301528
0.00302024
0.00302016
0.00295351
0.00287539
0.00270876
0.00251588
0.0021881
0.00181913
0.00151269
0.00138232
0.00150989
0.00176949
0.00210796
0.00241332
0.00264768
0.00281061
-0.000458573
-0.000310887
-0.000237986
-0.000191019
-0.000228535
-0.00024431
-0.000305679
-0.000352582
-0.000508059
-0.000704276
-0.00112497
-0.00163084
-0.00205872
-0.00228686
-0.00231017
-0.00212761
-0.00177023
-0.0013623
-0.000981265
-0.000674087
0.00202439
0.00212601
0.0021766
0.00222236
0.00221863
0.00220851
0.00212566
0.00205408
0.00185851
0.00163441
0.00112049
0.000583554
0.00020825
0.000148341
0.000363887
0.000721917
0.00110016
0.00142771
0.00169148
0.00188958
6.06491e-05
0.000104662
0.00010877
0.000112966
9.06071e-05
0.000112618
8.22547e-05
7.50079e-05
-7.18676e-05
-0.000282443
-0.000891014
-0.00153954
-0.00194212
-0.00199606
-0.00169886
-0.00124498
-0.000786636
-0.000429662
-0.000177206
-2.09326e-05
0.00125593
0.00132608
0.00135881
0.00139281
0.0013683
0.00135441
0.00127736
0.00121141
0.00102323
0.000771376
0.000115618
-0.00048956
-0.000756628
-0.00057187
-0.000172668
0.000240283
0.00060164
0.000855741
0.00104162
0.00116891
0.000173764
0.000183593
0.000171161
0.000172264
0.000164772
0.000189046
0.000169167
0.000164374
4.10993e-05
-0.00018116
-0.00086374
-0.00150392
-0.00171866
-0.00145614
-0.000968679
-0.000552337
-0.000224434
-3.10441e-05
9.07429e-05
0.000150606
0.00074344
0.000783597
0.000799898
0.000815466
0.000792668
0.000777383
0.000717477
0.000662379
0.000518151
0.000290317
-0.000337111
-0.000847087
-0.000856204
-0.000556889
-0.000132856
0.000166547
0.000398574
0.000530492
0.00063094
0.000695503
0.000179016
0.00018278
0.000172524
0.000178232
0.000172868
0.000191188
0.000176545
0.000180536
9.87187e-05
-4.70242e-05
-0.000623421
-0.00115684
-0.00109759
-0.000794582
-0.000407454
-0.000171899
6.52993e-06
8.88809e-05
0.000147361
0.000170252
0.000436513
0.000457469
0.000463505
0.000469653
0.000450503
0.000437495
0.000393619
0.000357584
0.00026586
0.000139348
-0.000326238
-0.000619849
-0.00050671
-0.000239614
3.32998e-05
0.000170643
0.000283861
0.000332815
0.000382678
0.00041143
0.000155858
0.000160495
0.000155577
0.000162899
0.000158191
0.000173646
0.000164408
0.000190828
0.000156141
0.000180892
-0.000199735
-0.000575247
-0.000489144
-0.000327994
-0.000117497
-2.51235e-05
6.68755e-05
9.94964e-05
0.000135262
0.000147621
0.000262255
0.000272904
0.000273744
0.000276101
0.000259867
0.000249758
0.000216734
0.000198034
0.00015091
0.000142312
-8.04693e-05
-0.000198052
-0.000125534
-1.03187e-05
0.000111801
0.000143396
0.000195158
0.000207822
0.000235744
0.000248336
0.000127519
0.000133293
0.000132137
0.000139192
0.000135296
0.000148781
0.000144391
0.000185346
0.000191665
0.000365574
0.000228874
-0.000146372
-0.000154563
-0.000139835
-4.82552e-05
-1.03918e-05
5.47024e-05
7.5924e-05
0.000106754
0.000117685
0.000166162
0.000171876
0.000170704
0.000171399
0.000157757
0.000149355
0.000122328
0.000109802
7.80654e-05
0.000145085
0.000251639
8.32745e-06
-2.2945e-05
-1.508e-05
5.42486e-05
6.77577e-05
0.000114965
0.000125812
0.000149139
0.000156846
0.000102665
0.000108156
0.000108635
0.00011426
0.000110953
0.000120335
0.00011654
0.000141313
0.000130456
0.000185717
0.000108642
-6.10594e-05
-5.50105e-05
-7.6297e-05
-1.48451e-05
-4.36468e-06
4.2743e-05
5.73093e-05
8.34128e-05
9.29041e-05
0.000114305
0.000117278
0.000115614
0.000115549
0.000104555
9.73598e-05
7.627e-05
6.32555e-05
4.14075e-05
4.32984e-05
7.53006e-05
4.57322e-06
2.90994e-05
2.15187e-05
6.15644e-05
5.8206e-05
8.67177e-05
8.86085e-05
0.00010439
0.000108085
8.38007e-05
8.79585e-05
8.87515e-05
9.25719e-05
8.95618e-05
9.5094e-05
9.22662e-05
0.000104264
9.67807e-05
0.000106187
6.34072e-05
-2.57681e-05
-1.74718e-05
-4.1363e-05
2.93385e-07
3.54402e-06
3.81839e-05
4.77823e-05
6.82657e-05
7.54126e-05
8.58887e-05
8.73019e-05
8.58308e-05
8.53871e-05
7.68845e-05
7.09892e-05
5.52814e-05
4.32342e-05
2.7366e-05
1.71076e-05
3.1076e-05
8.91383e-06
3.95645e-05
3.09379e-05
5.91642e-05
5.14818e-05
7.03294e-05
6.89204e-05
7.98917e-05
8.14738e-05
7.06249e-05
7.31112e-05
7.37282e-05
7.59003e-05
7.28195e-05
7.55274e-05
7.30735e-05
7.75044e-05
7.37391e-05
7.00457e-05
4.88337e-05
-5.59396e-06
5.0068e-07
-1.95292e-05
9.78699e-06
1.08978e-05
3.66756e-05
4.3314e-05
5.89586e-05
6.37778e-05
6.9812e-05
7.01859e-05
6.92147e-05
6.85668e-05
6.2126e-05
5.76327e-05
4.63685e-05
3.61408e-05
2.57608e-05
1.41795e-05
2.27215e-05
1.40108e-05
4.07086e-05
3.2865e-05
5.3788e-05
4.64143e-05
5.97399e-05
5.78584e-05
6.58674e-05
6.64284e-05
6.19979e-05
6.27766e-05
6.32982e-05
6.40933e-05
6.09353e-05
6.17122e-05
5.92163e-05
5.91794e-05
5.81678e-05
5.01594e-05
4.18021e-05
6.18036e-06
1.24203e-05
-2.85827e-06
1.84777e-05
1.8675e-05
3.74408e-05
4.21084e-05
5.36501e-05
5.65015e-05
6.06709e-05
5.99195e-05
5.96157e-05
5.8701e-05
5.35856e-05
5.03073e-05
4.31161e-05
3.41111e-05
2.87466e-05
1.76151e-05
2.47566e-05
1.81923e-05
3.95124e-05
3.20101e-05
4.84005e-05
4.2895e-05
5.26336e-05
5.15317e-05
5.75957e-05
5.74197e-05
5.66527e-05
5.57391e-05
5.65224e-05
5.6321e-05
5.29317e-05
5.27083e-05
5.01698e-05
4.71844e-05
4.82476e-05
3.88366e-05
3.79232e-05
1.37756e-05
2.15608e-05
1.00099e-05
2.6058e-05
2.59952e-05
3.90374e-05
4.257e-05
5.08414e-05
5.19668e-05
5.54024e-05
5.34068e-05
5.39216e-05
5.25359e-05
4.82636e-05
4.63707e-05
4.14309e-05
3.35291e-05
3.2806e-05
2.11321e-05
2.9303e-05
2.07493e-05
3.82474e-05
3.11417e-05
4.40363e-05
4.07904e-05
4.79343e-05
4.80721e-05
5.25571e-05
5.18007e-05
5.32433e-05
5.10941e-05
5.25329e-05
5.11327e-05
4.79236e-05
4.72911e-05
4.51555e-05
3.9741e-05
4.27104e-05
3.23518e-05
3.67219e-05
1.90315e-05
2.8629e-05
1.8824e-05
3.1882e-05
3.18181e-05
4.06565e-05
4.3787e-05
4.91392e-05
4.92591e-05
5.25238e-05
4.85852e-05
5.06005e-05
4.86903e-05
4.45302e-05
4.37274e-05
4.04079e-05
3.27222e-05
3.58196e-05
2.34291e-05
3.31926e-05
2.24628e-05
3.79322e-05
3.04859e-05
4.14525e-05
4.00891e-05
4.4554e-05
4.64265e-05
4.96182e-05
4.80538e-05
5.19183e-05
4.7667e-05
5.0411e-05
4.77727e-05
4.4163e-05
4.48621e-05
4.21378e-05
3.51557e-05
4.13208e-05
2.82042e-05
3.78216e-05
2.15431e-05
3.38695e-05
2.48315e-05
3.55077e-05
3.65189e-05
4.15455e-05
4.52282e-05
4.8038e-05
4.69375e-05
5.04449e-05
4.50137e-05
4.89044e-05
4.56731e-05
4.18385e-05
4.22656e-05
3.99256e-05
3.07597e-05
3.81282e-05
2.37108e-05
3.64515e-05
2.29521e-05
3.87661e-05
2.95107e-05
3.98446e-05
3.99349e-05
4.23135e-05
4.59961e-05
4.72271e-05
4.55078e-05
5.16561e-05
4.39698e-05
4.96208e-05
4.62618e-05
4.11e-05
4.33098e-05
4.07729e-05
3.18814e-05
4.1652e-05
2.5476e-05
3.9787e-05
2.26547e-05
3.78058e-05
2.78224e-05
3.81521e-05
4.00542e-05
4.07931e-05
4.67124e-05
4.78784e-05
4.48053e-05
4.98065e-05
4.1311e-05
4.81447e-05
4.36409e-05
3.8558e-05
4.21179e-05
3.92388e-05
2.80944e-05
4.07108e-05
2.15396e-05
3.98041e-05
2.1409e-05
3.97725e-05
2.82913e-05
3.83188e-05
4.06589e-05
3.98455e-05
4.61833e-05
4.54169e-05
4.23654e-05
5.15872e-05
4.10055e-05
4.98925e-05
4.43428e-05
3.82417e-05
4.34701e-05
3.98925e-05
2.81272e-05
4.33049e-05
2.23726e-05
4.25779e-05
2.18405e-05
4.13478e-05
2.82666e-05
3.90665e-05
4.23812e-05
3.98053e-05
4.83207e-05
4.66818e-05
4.25973e-05
5.03253e-05
3.62031e-05
4.84438e-05
4.24909e-05
3.3596e-05
4.31091e-05
3.84724e-05
2.37113e-05
4.3206e-05
1.75591e-05
4.28662e-05
1.81864e-05
4.13946e-05
2.55376e-05
3.64916e-05
4.21224e-05
3.58033e-05
4.68767e-05
4.40743e-05
3.77611e-05
5.20017e-05
3.67574e-05
5.11421e-05
4.2667e-05
3.42842e-05
4.50341e-05
3.88732e-05
2.3085e-05
4.64928e-05
1.7273e-05
4.64538e-05
1.81388e-05
4.45548e-05
2.59871e-05
3.88436e-05
4.41573e-05
3.68724e-05
5.02168e-05
4.50797e-05
3.92776e-05
5.08564e-05
2.97498e-05
5.03987e-05
4.01951e-05
2.69544e-05
4.56674e-05
3.72706e-05
1.62198e-05
4.68463e-05
1.03026e-05
4.68152e-05
1.17529e-05
4.37499e-05
1.99927e-05
3.3931e-05
4.31215e-05
3.02341e-05
4.86228e-05
4.11756e-05
3.18137e-05
5.34644e-05
3.03217e-05
5.36182e-05
4.04742e-05
2.72395e-05
4.81957e-05
3.72455e-05
1.58835e-05
5.0256e-05
9.8921e-06
5.0468e-05
1.16641e-05
4.73859e-05
2.01695e-05
3.73171e-05
4.61817e-05
3.12122e-05
5.25315e-05
4.2441e-05
3.31474e-05
5.28019e-05
1.78499e-05
5.55114e-05
3.77865e-05
1.41225e-05
5.20015e-05
3.5604e-05
1.7092e-06
5.36724e-05
-3.47121e-06
5.35345e-05
-1.14853e-06
4.83598e-05
8.0669e-06
2.94477e-05
4.57281e-05
1.90402e-05
5.27087e-05
3.75488e-05
2.09072e-05
5.48606e-05
1.95022e-05
5.81961e-05
3.62212e-05
1.55909e-05
5.43568e-05
3.37686e-05
3.09828e-06
5.56375e-05
-2.68396e-06
5.55069e-05
-2.00331e-07
5.05513e-05
8.93385e-06
3.35714e-05
4.72914e-05
2.07087e-05
5.58985e-05
3.69269e-05
2.30815e-05
5.81346e-05
-5.05591e-06
6.85119e-05
3.11234e-05
-1.3267e-05
6.84303e-05
3.03287e-05
-2.79148e-05
6.69529e-05
-3.07358e-05
6.56382e-05
-2.72753e-05
5.7436e-05
-1.74173e-05
2.13848e-05
5.15622e-05
-3.39058e-06
6.3226e-05
2.89526e-05
-1.63929e-06
-0.0135295
-0.0129806
-0.0125313
-0.0122037
-0.0120119
-0.0119856
-0.0121409
-0.0124563
-0.012921
-0.0134991
-0.0141543
-0.0148181
-0.0154093
-0.0158335
-0.0160268
-0.0159971
-0.0157561
-0.015325
-0.0147624
-0.0141412
0.00193443
0.00199132
0.00192511
0.00179074
0.00163348
0.00151839
0.00138224
0.00120742
0.000972682
0.000687787
0.000341685
-2.52495e-05
-0.000336999
-0.000510482
-0.000465349
-0.000152146
0.000325975
0.000859925
0.00135108
0.00172261
-0.00274634
-0.00243857
-0.00222229
-0.00208728
-0.00207324
-0.00218074
-0.00237759
-0.00261747
-0.00295211
-0.00334958
-0.00384926
-0.00437139
-0.00481338
-0.00505158
-0.00507937
-0.00489736
-0.00453531
-0.00405831
-0.00356789
-0.00312192
0.00338182
0.00345928
0.00347784
0.00348058
0.00345798
0.00341391
0.00328826
0.0031328
0.00285452
0.00251834
0.0020037
0.00145076
0.00102375
0.000887754
0.0011374
0.00158347
0.00213132
0.00262089
0.00299156
0.00323985
-0.000285166
-0.000126147
-5.50838e-05
-1.87936e-05
-7.96499e-05
-0.00012078
-0.00023058
-0.000344132
-0.000611059
-0.000961803
-0.00160206
-0.00231546
-0.00284472
-0.00304783
-0.00291549
-0.00251677
-0.001951
-0.00138187
-0.000895901
-0.000529284
0.00247791
0.00259712
0.00265317
0.00269982
0.00267693
0.00264349
0.00251207
0.00237508
0.00206417
0.0016762
0.000918536
0.000183536
-0.000249174
-0.000194049
0.000213565
0.000771097
0.00130827
0.00174352
0.00207573
0.00231675
0.000290873
0.00034865
0.000355656
0.000357961
0.000326109
0.000334318
0.000266355
0.000205515
-5.073e-05
-0.000428869
-0.00130559
-0.00214888
-0.00257544
-0.00248173
-0.00197888
-0.00134313
-0.000752261
-0.000310974
-3.80413e-06
0.000187799
0.00158483
0.00167344
0.0017133
0.00174984
0.00171283
0.00168291
0.00156685
0.00144676
0.00115074
0.000728883
-0.000200171
-0.000970955
-0.0012005
-0.00085779
-0.000266435
0.00028871
0.000752401
0.00107362
0.00130918
0.00147249
0.000370683
0.000392101
0.000381865
0.000385348
0.000369832
0.000385557
0.000336358
0.000289354
7.14513e-05
-0.000312699
-0.00126941
-0.00205858
-0.0021999
-0.00176814
-0.00110767
-0.000574978
-0.00016341
8.29653e-05
0.000244222
0.00033061
0.000967392
0.00102021
0.00104046
0.00105742
0.00102542
0.000999523
0.000910631
0.000815456
0.000585647
0.000209191
-0.000674603
-0.00129117
-0.00120093
-0.000747656
-0.000183033
0.00020377
0.000502607
0.000677369
0.000812914
0.000902063
0.000329498
0.000341324
0.000332258
0.000340394
0.000328755
0.000342055
0.00030659
0.000283505
0.000133285
-0.000135303
-0.000946313
-0.0015671
-0.00139593
-0.000962952
-0.000461237
-0.00016089
7.02652e-05
0.000184055
0.000269276
0.000309243
0.000586633
0.000615403
0.000623093
0.000630361
0.000604097
0.000584613
0.000521055
0.000460982
0.000313387
8.69937e-05
-0.000576036
-0.000910397
-0.000694905
-0.000325318
3.16371e-05
0.000211616
0.000364251
0.00043578
0.000507722
0.000550819
0.000266194
0.000276522
0.000272387
0.000281858
0.00027239
0.000285911
0.000263673
0.000279669
0.000206655
0.000171445
-0.000374005
-0.000792571
-0.000621583
-0.000393146
-0.000119436
5.49137e-07
0.00012408
0.000173161
0.000226885
0.000249904
0.000364322
0.000379943
0.000381369
0.000384767
0.000362983
0.000349314
0.000303448
0.00027424
0.000198533
0.000146871
-0.000189874
-0.000322415
-0.000185636
-2.69186e-05
0.00013644
0.000181881
0.00025654
0.000279906
0.000322371
0.000343385
0.000208006
0.000217998
0.000217457
0.00022638
0.000218857
0.000232295
0.000220322
0.000262053
0.000254074
0.000423659
0.000205031
-0.000227918
-0.000194068
-0.000162121
-3.66759e-05
1.11382e-05
9.83482e-05
0.00012929
0.00017377
0.000192001
0.00023819
0.000247284
0.000246279
0.00024787
0.000229768
0.000219284
0.000183114
0.000166704
0.000120669
0.000188048
0.000272718
-3.08666e-05
-4.12293e-05
-2.51362e-05
7.11376e-05
9.17571e-05
0.00015783
0.000175711
0.000210409
0.000223741
0.000162738
0.000171324
0.000172238
0.000179319
0.000173077
0.000182713
0.000173583
0.000199914
0.000179852
0.000239167
0.000132108
-8.80823e-05
-6.9117e-05
-9.18568e-05
-6.22745e-06
9.3449e-06
7.47302e-05
9.62079e-05
0.000133361
0.000148117
0.000167999
0.000173264
0.000171588
0.000172189
0.000157569
0.000148856
0.000120842
0.000104899
7.37258e-05
7.41031e-05
9.73961e-05
-5.63611e-06
3.07103e-05
2.03854e-05
7.89552e-05
7.74244e-05
0.000120076
0.000126051
0.000150515
0.000157933
0.00013064
0.000136901
0.000137925
0.000142724
0.000137221
0.000142753
0.000135892
0.000148008
0.000134462
0.000142454
8.56132e-05
-3.37909e-05
-1.73121e-05
-4.70609e-05
1.15571e-05
1.66516e-05
6.50182e-05
7.89069e-05
0.000107824
0.000118534
0.000128444
0.000131303
0.00012974
0.000129696
0.000118241
0.000111103
9.01674e-05
7.5209e-05
5.28915e-05
3.8551e-05
4.83439e-05
9.58325e-06
5.01871e-05
3.66962e-05
7.82279e-05
6.99272e-05
9.90487e-05
9.97658e-05
0.000117195
0.000121133
0.00010914
0.000112861
0.000113557
0.000116254
0.000110965
0.000113388
0.000107755
0.000111159
0.000103509
9.6046e-05
6.81765e-05
-4.55225e-06
8.1177e-06
-1.77934e-05
2.39374e-05
2.53216e-05
6.12522e-05
7.04807e-05
9.24034e-05
9.94697e-05
0.000105597
0.000106698
0.000105644
0.000105125
9.62484e-05
9.07338e-05
7.559e-05
6.2532e-05
4.80604e-05
3.17208e-05
3.88042e-05
2.03352e-05
5.54221e-05
4.28244e-05
7.36743e-05
6.50028e-05
8.59039e-05
8.51996e-05
9.80132e-05
9.99801e-05
9.54092e-05
9.66369e-05
9.72106e-05
9.81238e-05
9.29585e-05
9.32775e-05
8.82334e-05
8.64538e-05
8.32525e-05
7.08308e-05
6.00116e-05
1.25779e-05
2.46482e-05
4.38142e-06
3.50841e-05
3.49571e-05
6.11468e-05
6.74508e-05
8.35848e-05
8.77039e-05
9.24072e-05
9.16833e-05
9.14185e-05
9.0347e-05
8.31261e-05
7.90489e-05
6.90769e-05
5.72851e-05
4.9836e-05
3.39196e-05
4.14956e-05
2.79718e-05
5.63839e-05
4.46307e-05
6.87482e-05
6.20675e-05
7.74013e-05
7.71469e-05
8.67631e-05
8.72769e-05
8.70242e-05
8.58039e-05
8.67868e-05
8.63358e-05
8.10508e-05
8.03764e-05
7.57848e-05
7.05498e-05
7.08848e-05
5.68535e-05
5.61647e-05
2.36801e-05
3.70502e-05
2.13122e-05
4.46429e-05
4.41774e-05
6.25093e-05
6.7261e-05
7.88092e-05
8.04465e-05
8.47719e-05
8.20845e-05
8.29186e-05
8.10397e-05
7.48497e-05
7.24678e-05
6.54573e-05
5.47252e-05
5.37006e-05
3.70846e-05
4.73102e-05
3.27341e-05
5.65992e-05
4.56658e-05
6.47893e-05
6.0807e-05
7.19833e-05
7.30146e-05
8.00202e-05
7.93893e-05
8.18551e-05
7.86465e-05
8.06583e-05
7.85849e-05
7.35491e-05
7.26606e-05
6.88698e-05
6.07068e-05
6.43662e-05
4.90237e-05
5.57144e-05
3.1267e-05
4.65735e-05
3.29345e-05
5.19496e-05
5.16769e-05
6.41133e-05
6.84649e-05
7.59843e-05
7.60524e-05
8.06022e-05
7.50869e-05
7.79843e-05
7.51822e-05
6.91021e-05
6.82404e-05
6.32923e-05
5.24929e-05
5.69791e-05
3.91423e-05
5.25546e-05
3.58237e-05
5.75843e-05
4.63636e-05
6.26559e-05
6.10921e-05
6.8165e-05
7.13074e-05
7.61114e-05
7.41508e-05
7.96649e-05
7.33821e-05
7.73915e-05
7.35788e-05
6.802e-05
6.90364e-05
6.4791e-05
5.44853e-05
6.30329e-05
4.39853e-05
5.80004e-05
3.50529e-05
5.37202e-05
4.07475e-05
5.65576e-05
5.7818e-05
6.49138e-05
7.02288e-05
7.42032e-05
7.25037e-05
7.78418e-05
6.97963e-05
7.54853e-05
7.08044e-05
6.48837e-05
6.59545e-05
6.21627e-05
4.91934e-05
5.98733e-05
3.88764e-05
5.71915e-05
3.69057e-05
5.96753e-05
4.61396e-05
6.14057e-05
6.18844e-05
6.5506e-05
7.11619e-05
7.30544e-05
7.04613e-05
7.90785e-05
6.80003e-05
7.61341e-05
7.10504e-05
6.34705e-05
6.69324e-05
6.28613e-05
4.97764e-05
6.39712e-05
4.03215e-05
6.13392e-05
3.65628e-05
5.92006e-05
4.45554e-05
5.98098e-05
6.2547e-05
6.37207e-05
7.22126e-05
7.36193e-05
6.92584e-05
7.70028e-05
6.44007e-05
7.44767e-05
6.78146e-05
6.00587e-05
6.56173e-05
6.10228e-05
4.50207e-05
6.33696e-05
3.55641e-05
6.20168e-05
3.50591e-05
6.18359e-05
4.49976e-05
5.99626e-05
6.35063e-05
6.23174e-05
7.18081e-05
7.06701e-05
6.60504e-05
7.89974e-05
6.33281e-05
7.64666e-05
6.82662e-05
5.90041e-05
6.71991e-05
6.15647e-05
4.42648e-05
6.66336e-05
3.57662e-05
6.56642e-05
3.51639e-05
6.41218e-05
4.48381e-05
6.08269e-05
6.58334e-05
6.19112e-05
7.44515e-05
7.18536e-05
6.57311e-05
7.76561e-05
5.72167e-05
7.50306e-05
6.5892e-05
5.31017e-05
6.70214e-05
5.98229e-05
3.85403e-05
6.70547e-05
2.9673e-05
6.66456e-05
3.05549e-05
6.46171e-05
4.13707e-05
5.78224e-05
6.58033e-05
5.69168e-05
7.31051e-05
6.86523e-05
5.97121e-05
7.96344e-05
5.6847e-05
7.82894e-05
6.57436e-05
5.28678e-05
6.95059e-05
6.00512e-05
3.67275e-05
7.1266e-05
2.82709e-05
7.13061e-05
2.96602e-05
6.86369e-05
4.12297e-05
6.02243e-05
6.841e-05
5.73783e-05
7.715e-05
6.94208e-05
6.05392e-05
7.84886e-05
4.80193e-05
7.78597e-05
6.26223e-05
4.36695e-05
7.07074e-05
5.8033e-05
2.7899e-05
7.2331e-05
1.93407e-05
7.24333e-05
2.15316e-05
6.82051e-05
3.36628e-05
5.44573e-05
6.74875e-05
4.91189e-05
7.57254e-05
6.46098e-05
5.13208e-05
8.15923e-05
4.72584e-05
8.19805e-05
6.24791e-05
4.24912e-05
7.42142e-05
5.76767e-05
2.58533e-05
7.69011e-05
1.72608e-05
7.73194e-05
1.99863e-05
7.28069e-05
3.25803e-05
5.77532e-05
7.12364e-05
4.89905e-05
8.05537e-05
6.54709e-05
5.15274e-05
8.10252e-05
3.20697e-05
8.47376e-05
5.90089e-05
2.65026e-05
7.92995e-05
5.55065e-05
8.52199e-06
8.15219e-05
8.50369e-07
8.15237e-05
4.3038e-06
7.43651e-05
1.77648e-05
4.84985e-05
7.09322e-05
3.42292e-05
8.12031e-05
5.93389e-05
3.67069e-05
8.36221e-05
3.21629e-05
8.8588e-05
5.67044e-05
2.61647e-05
8.30297e-05
5.30224e-05
7.88438e-06
8.47131e-05
-3.53724e-07
8.4695e-05
3.40774e-06
7.74753e-05
1.69032e-05
5.24267e-05
7.30999e-05
3.44443e-05
8.54483e-05
5.79353e-05
3.74689e-05
8.72218e-05
4.29866e-06
0.000100642
5.06129e-05
-6.50118e-06
9.95068e-05
4.89361e-05
-2.72362e-05
9.7937e-05
-3.22001e-05
9.65418e-05
-2.73099e-05
8.53729e-05
-1.30467e-05
3.84741e-05
7.79163e-05
7.14354e-06
9.38479e-05
4.83573e-05
9.55389e-06
-0.0149494
-0.0143244
-0.0138106
-0.0134354
-0.0132216
-0.0132055
-0.0133946
-0.0137669
-0.0143084
-0.0149761
-0.0157255
-0.0164772
-0.0171391
-0.0176074
-0.0178138
-0.0177668
-0.0174812
-0.0169856
-0.0163462
-0.0156428
0.00141572
0.00152457
0.00149535
0.001382
0.00123493
0.00111143
0.000935089
0.000702929
0.000392826
2.07497e-05
-0.000418823
-0.000873628
-0.00125303
-0.00146169
-0.00140888
-0.00105282
-0.000506944
0.000109778
0.000686442
0.00113715
-0.00310457
-0.00274844
-0.00250894
-0.00237048
-0.00238085
-0.00252196
-0.0027666