/*--------------------------------*- C++ -*----------------------------------*\
| =========                 |                                                 |
| \\      /  F ield         | OpenFOAM: The Open Source CFD Toolbox           |
|  \\    /   O peration     | Version:  2.4.0                                 |
|   \\  /    A nd           | Web:      www.OpenFOAM.org                      |
|    \\/     M anipulation  |                                                 |
\*---------------------------------------------------------------------------*/
FoamFile
{
    version     2.0;
    format      ascii;
    class       volScalarField;
    location    "430";
    object      p;
}
// * * * * * * * * * * * * * * * * * * * * * * * * * * * * * * * * * * * * * //

dimensions      [0 2 -2 0 0 0 0];

internalField   nonuniform List<scalar> 
283312
(
-0.00626725
-0.00632561
-0.00656517
-0.00690591
-0.00725983
-0.00755775
-0.00779154
-0.00795582
-0.00808279
-0.00819581
-0.00831497
-0.00842682
-0.00849929
-0.00847666
-0.00832563
-0.00805331
-0.0076706
-0.00721441
-0.00676607
-0.0064239
0.00215225
0.00164858
0.00122055
0.000949422
0.000848337
0.000912303
0.001054
0.00119402
0.00130414
0.00139181
0.00145935
0.00153846
0.00166711
0.00186795
0.00215414
0.00252475
0.00284168
0.00299478
0.00292011
0.00261609
-0.00230065
-0.00215113
-0.0019291
-0.00168995
-0.00149856
-0.0014025
-0.00138522
-0.00139284
-0.00144341
-0.00148677
-0.00151869
-0.00149835
-0.00142665
-0.00132542
-0.0012767
-0.00137967
-0.00161601
-0.00190674
-0.00216694
-0.0023101
0.00148332
0.00165485
0.00179789
0.00191225
0.00199502
0.00206338
0.00206988
0.00207576
0.00204186
0.00205173
0.00206813
0.00211546
0.00214587
0.00210713
0.00198405
0.00174721
0.00150005
0.00131774
0.00126286
0.00133571
-0.000743567
-0.000545989
-0.000429839
-0.000352133
-0.000349365
-0.000337231
-0.000349373
-0.000336398
-0.000367121
-0.000345199
-0.000355558
-0.00041159
-0.000585943
-0.000896894
-0.00131554
-0.00165153
-0.00174286
-0.00160445
-0.00132241
-0.0010085
0.00120438
0.0013135
0.00137107
0.00141646
0.00143005
0.00143723
0.00140259
0.00138925
0.00132446
0.00133331
0.00127601
0.00115128
0.000878321
0.000524614
0.000263447
0.000193419
0.000320612
0.000561687
0.00082552
0.00104813
-0.000149947
-0.000110649
-0.000103902
-9.82649e-05
-0.000109663
-8.46984e-05
-8.52271e-05
-5.67864e-05
-8.85629e-05
-6.47503e-05
-0.000182019
-0.000454731
-0.000865559
-0.00126882
-0.00139984
-0.00124802
-0.000936294
-0.000624161
-0.000382114
-0.000229233
0.000763611
0.000812476
0.000835853
0.000860634
0.000848848
0.000845164
0.000807535
0.000787048
0.000718014
0.000707142
0.000546851
0.000231793
-0.000172752
-0.000361953
-0.000309136
-7.77321e-05
0.000206545
0.000433123
0.000595213
0.000698645
7.00633e-08
1.70239e-06
-9.26321e-06
-1.09357e-05
-1.238e-05
9.53679e-06
1.1366e-05
3.1263e-05
3.42886e-06
6.57381e-06
-0.0001887
-0.000596664
-0.00100178
-0.00108485
-0.000870066
-0.000579191
-0.000314601
-0.000150325
-5.42442e-05
-1.21163e-05
0.000441656
0.000466141
0.00047686
0.000487291
0.000474428
0.000466012
0.000435568
0.000413219
0.000359855
0.0003425
0.000161478
-0.000210046
-0.000462232
-0.000448072
-0.000215532
9.79668e-06
0.000194495
0.000299857
0.000370654
0.000412276
4.41639e-05
4.20943e-05
3.31856e-05
3.50217e-05
3.4264e-05
4.93106e-05
4.96554e-05
6.59406e-05
4.87722e-05
7.33864e-05
-0.00010407
-0.000534644
-0.00071649
-0.000634001
-0.000390399
-0.000205239
-6.72e-05
-4.19946e-06
3.27247e-05
4.33641e-05
0.000251043
0.000262758
0.000266535
0.000269657
0.000258476
0.000249703
0.000226105
0.000208492
0.000173105
0.000192051
5.50873e-05
-0.000227577
-0.00033216
-0.000226051
-4.53901e-05
6.89284e-05
0.000154639
0.000191097
0.000221279
0.000237203
5.51553e-05
5.50979e-05
5.05913e-05
5.40266e-05
5.28282e-05
6.40867e-05
6.37173e-05
8.72602e-05
8.38773e-05
0.000190208
7.55409e-05
-0.000272128
-0.000356188
-0.000290537
-0.000144991
-6.32622e-05
4.71898e-06
2.87706e-05
4.87594e-05
5.33419e-05
0.000145578
0.000150736
0.00015092
0.000151205
0.000141421
0.000133627
0.000114474
0.000102296
8.16516e-05
0.00013898
9.8074e-05
-5.15779e-05
-0.000108713
-5.34688e-05
3.36502e-05
7.06074e-05
0.000108229
0.000118033
0.000132986
0.000138775
5.29242e-05
5.46289e-05
5.31398e-05
5.66865e-05
5.54753e-05
6.44534e-05
6.47399e-05
9.32641e-05
0.000105226
0.000280103
0.000266996
-5.06931e-05
-0.000137049
-0.000139601
-7.50945e-05
-3.47537e-05
1.11907e-05
2.69449e-05
4.41031e-05
4.89889e-05
8.90744e-05
9.12682e-05
9.00493e-05
8.92584e-05
8.09122e-05
7.40316e-05
5.76615e-05
4.70358e-05
2.89792e-05
8.60434e-05
0.000195879
3.70222e-05
-1.9464e-05
-1.94558e-05
2.15012e-05
3.48944e-05
6.34155e-05
7.02124e-05
8.19407e-05
8.50008e-05
4.63611e-05
4.85535e-05
4.84508e-05
5.12826e-05
5.01758e-05
5.61651e-05
5.59622e-05
7.23346e-05
6.8477e-05
0.000106972
6.64664e-05
-3.07897e-05
-4.01468e-05
-5.4882e-05
-2.09226e-05
-1.19355e-05
1.475e-05
2.34891e-05
3.72529e-05
4.18112e-05
5.95195e-05
6.02635e-05
5.87576e-05
5.76623e-05
5.09368e-05
4.50628e-05
3.22661e-05
2.18497e-05
9.76211e-06
9.0807e-06
4.07691e-05
9.82028e-06
1.88764e-05
1.6528e-05
3.63485e-05
3.51401e-05
4.90904e-05
4.92045e-05
5.62141e-05
5.71228e-05
3.95708e-05
4.1393e-05
4.16767e-05
4.35267e-05
4.24229e-05
4.58563e-05
4.58033e-05
5.38631e-05
5.14548e-05
5.8144e-05
3.3567e-05
-1.54775e-05
-1.68334e-05
-3.05345e-05
-8.37723e-06
-4.57184e-06
1.45732e-05
2.06402e-05
3.16055e-05
3.53599e-05
4.37832e-05
4.38812e-05
4.25879e-05
4.14943e-05
3.63493e-05
3.1623e-05
2.21321e-05
1.32193e-05
4.41741e-06
-2.44196e-06
1.15511e-05
6.4116e-06
2.27382e-05
2.05253e-05
3.4159e-05
3.0269e-05
3.88902e-05
3.74173e-05
4.20909e-05
4.21846e-05
3.41104e-05
3.52116e-05
3.54648e-05
3.64168e-05
3.51068e-05
3.67124e-05
3.64883e-05
3.97614e-05
3.90668e-05
3.78397e-05
2.5389e-05
-5.23326e-06
-6.21119e-06
-1.71519e-05
-1.95217e-06
4.2696e-07
1.47058e-05
1.92711e-05
2.78085e-05
3.05271e-05
3.50546e-05
3.48306e-05
3.39371e-05
3.29596e-05
2.91479e-05
2.55938e-05
1.88258e-05
1.17199e-05
5.84098e-06
-9.17026e-07
6.80543e-06
6.97391e-06
2.18169e-05
1.97502e-05
2.98114e-05
2.60864e-05
3.2019e-05
3.05716e-05
3.39806e-05
3.38364e-05
3.02477e-05
3.05395e-05
3.07412e-05
3.09562e-05
2.94839e-05
2.9829e-05
2.91956e-05
2.9662e-05
3.00555e-05
2.61753e-05
2.10637e-05
7.8626e-07
1.06787e-06
-6.94721e-06
3.89765e-06
5.44397e-06
1.58402e-05
1.92296e-05
2.5596e-05
2.7337e-05
3.01425e-05
2.95143e-05
2.90735e-05
2.81511e-05
2.52055e-05
2.26106e-05
1.84042e-05
1.24981e-05
9.30968e-06
3.23507e-06
8.50119e-06
8.23191e-06
2.00056e-05
1.76084e-05
2.55586e-05
2.28916e-05
2.72406e-05
2.64397e-05
2.91172e-05
2.88054e-05
2.77295e-05
2.72021e-05
2.75162e-05
2.7255e-05
2.55528e-05
2.52095e-05
2.42449e-05
2.28776e-05
2.39361e-05
1.92593e-05
1.82223e-05
4.72485e-06
6.75212e-06
9.88558e-07
9.01252e-06
1.00729e-05
1.72654e-05
1.98385e-05
2.44541e-05
2.52671e-05
2.72876e-05
2.61671e-05
2.61903e-05
2.51829e-05
2.28028e-05
2.12044e-05
1.83573e-05
1.35198e-05
1.28519e-05
6.62702e-06
1.15808e-05
9.01808e-06
1.84048e-05
1.58795e-05
2.20708e-05
2.06781e-05
2.39732e-05
2.39774e-05
2.6072e-05
2.56161e-05
2.59835e-05
2.49947e-05
2.55798e-05
2.47105e-05
2.31223e-05
2.24064e-05
2.15314e-05
1.86822e-05
2.02997e-05
1.52322e-05
1.69631e-05
7.57736e-06
1.11365e-05
6.40896e-06
1.29309e-05
1.36514e-05
1.85838e-05
2.06921e-05
2.37094e-05
2.40424e-05
2.56827e-05
2.36299e-05
2.446e-05
2.33663e-05
2.10895e-05
2.01361e-05
1.83247e-05
1.39529e-05
1.51974e-05
8.86595e-06
1.39801e-05
9.66778e-06
1.75648e-05
1.46406e-05
1.99049e-05
1.94998e-05
2.15933e-05
2.26047e-05
2.42745e-05
2.34698e-05
2.53547e-05
2.33706e-05
2.45173e-05
2.30602e-05
2.12417e-05
2.12593e-05
1.98687e-05
1.62336e-05
1.92499e-05
1.27267e-05
1.72021e-05
8.92968e-06
1.42936e-05
1.01883e-05
1.53452e-05
1.64801e-05
1.93792e-05
2.15389e-05
2.32037e-05
2.2875e-05
2.43513e-05
2.18356e-05
2.3525e-05
2.18104e-05
1.99118e-05
1.95143e-05
1.84016e-05
1.33842e-05
1.67233e-05
9.64742e-06
1.57962e-05
9.84417e-06
1.75824e-05
1.35192e-05
1.85169e-05
1.87823e-05
2.01203e-05
2.19996e-05
2.2748e-05
2.20907e-05
2.52444e-05
2.14793e-05
2.40899e-05
2.24891e-05
1.97621e-05
2.03852e-05
1.91923e-05
1.46783e-05
1.91735e-05
1.13508e-05
1.79598e-05
9.72389e-06
1.65633e-05
1.2173e-05
1.71566e-05
1.8535e-05
1.91101e-05
2.23173e-05
2.33057e-05
2.18274e-05
2.38631e-05
1.9961e-05
2.29885e-05
2.07936e-05
1.83057e-05
1.95067e-05
1.81953e-05
1.23491e-05
1.82127e-05
8.84107e-06
1.75628e-05
8.97921e-06
1.77305e-05
1.26214e-05
1.733e-05
1.87797e-05
1.86705e-05
2.17797e-05
2.16469e-05
2.03557e-05
2.50869e-05
2.02212e-05
2.41763e-05
2.15143e-05
1.85519e-05
2.04132e-05
1.88153e-05
1.29449e-05
1.98377e-05
1.00031e-05
1.9212e-05
9.62076e-06
1.85484e-05
1.27537e-05
1.78813e-05
1.97558e-05
1.89099e-05
2.31168e-05
2.27017e-05
2.08893e-05
2.40699e-05
1.72663e-05
2.29558e-05
2.03818e-05
1.56978e-05
1.9967e-05
1.79257e-05
1.03457e-05
1.93955e-05
7.10156e-06
1.89718e-05
7.42327e-06
1.82879e-05
1.11245e-05
1.61215e-05
1.93844e-05
1.64076e-05
2.18534e-05
2.10086e-05
1.78038e-05
2.51522e-05
1.83449e-05
2.46811e-05
2.07506e-05
1.68895e-05
2.10935e-05
1.83933e-05
1.06984e-05
2.13681e-05
7.71904e-06
2.10967e-05
8.0506e-06
2.02281e-05
1.19531e-05
1.79751e-05
2.06222e-05
1.77083e-05
2.40056e-05
2.19793e-05
1.94751e-05
2.4156e-05
1.40259e-05
2.37935e-05
1.92361e-05
1.23542e-05
2.11397e-05
1.74372e-05
6.62942e-06
2.11063e-05
3.59576e-06
2.08142e-05
4.24226e-06
1.9291e-05
8.31729e-06
1.46161e-05
1.96855e-05
1.35643e-05
2.25458e-05
1.94869e-05
1.47183e-05
2.58198e-05
1.54944e-05
2.56576e-05
1.978e-05
1.36888e-05
2.23967e-05
1.76901e-05
7.66014e-06
2.2951e-05
4.58015e-06
2.28185e-05
5.33427e-06
2.14777e-05
9.46406e-06
1.73863e-05
2.16349e-05
1.52209e-05
2.4963e-05
2.08095e-05
1.66246e-05
2.50895e-05
7.58403e-06
2.63963e-05
1.82534e-05
5.3916e-06
2.4356e-05
1.68445e-05
-1.24598e-06
2.46715e-05
-3.72349e-06
2.43263e-05
-2.66391e-06
2.17177e-05
1.89532e-06
1.20251e-05
2.10885e-05
7.46924e-06
2.46154e-05
1.78269e-05
8.76121e-06
2.6215e-05
1.03372e-05
2.75051e-05
1.76163e-05
8.20083e-06
2.50096e-05
1.59322e-05
1.69765e-06
2.51548e-05
-1.26349e-06
2.48615e-05
-1.97112e-07
2.26535e-05
4.18608e-06
1.55149e-05
2.18283e-05
1.01616e-05
2.62353e-05
1.79915e-05
1.17809e-05
2.82854e-05
-6.76535e-06
3.40728e-05
1.44176e-05
-1.1971e-05
3.40235e-05
1.38318e-05
-1.99279e-05
3.23789e-05
-2.06741e-05
3.13098e-05
-1.89673e-05
2.70498e-05
-1.40766e-05
6.78597e-06
2.4577e-05
-6.67171e-06
3.09023e-05
1.29162e-05
-5.60836e-06
-0.0109821
-0.0105895
-0.0102836
-0.0100722
-0.0099557
-0.00994315
-0.0100639
-0.0102986
-0.0106412
-0.0110677
-0.0115558
-0.0120543
-0.0125002
-0.0128154
-0.012949
-0.0129116
-0.0127112
-0.0123634
-0.0119182
-0.0114387
0.00232703
0.00228121
0.00215011
0.00198867
0.00183465
0.00174473
0.00167567
0.00159052
0.00146842
0.00131408
0.00111203
0.000888928
0.00069978
0.000605403
0.000667443
0.000935497
0.00131219
0.00170487
0.00203641
0.00225103
-0.00233558
-0.00209999
-0.00191435
-0.00177852
-0.00172904
-0.00178495
-0.00191258
-0.00206238
-0.00228032
-0.00253636
-0.00286779
-0.00321892
-0.00352181
-0.0036919
-0.00372868
-0.0036537
-0.00346551
-0.00318752
-0.00288587
-0.00259648
0.0029092
0.00297269
0.00299698
0.00301447
0.00301944
0.00301939
0.00295274
0.00287463
0.00270802
0.00251516
0.00218737
0.0018183
0.0015116
0.00138094
0.00150826
0.00176772
0.00210623
0.00241172
0.00264627
0.00280939
-0.000458473
-0.000310708
-0.000237743
-0.000190702
-0.000228157
-0.00024388
-0.00030521
-0.000352061
-0.000507477
-0.000703632
-0.00112424
-0.0016301
-0.00205818
-0.00228671
-0.00231038
-0.00212803
-0.00177061
-0.00136252
-0.000981345
-0.000674062
0.00202327
0.00212494
0.00217557
0.00222137
0.00221767
0.00220757
0.00212473
0.00205317
0.00185764
0.0016336
0.00111991
0.000583253
0.000207946
0.000147751
0.000362871
0.000720649
0.00109881
0.0014264
0.00169024
0.0018884
6.03927e-05
0.000104472
0.000108637
0.000112892
9.05631e-05
0.000112587
8.22256e-05
7.49722e-05
-7.18665e-05
-0.000282353
-0.000890497
-0.00153839
-0.00194077
-0.00199483
-0.00169811
-0.00124472
-0.000786711
-0.000429913
-0.000177519
-2.12346e-05
0.00125513
0.0013253
0.00135805
0.00139207
0.00136759
0.00135372
0.00127669
0.00121075
0.00102263
0.000770912
0.000115727
-0.000488721
-0.000755315
-0.000570884
-0.000172265
0.000240094
0.000601076
0.000854996
0.00104081
0.00116809
0.000173481
0.000183363
0.000170975
0.000172115
0.000164637
0.000188905
0.000169018
0.000164205
4.09651e-05
-0.000181197
-0.000863255
-0.00150278
-0.00171701
-0.00145467
-0.00096787
-0.00055211
-0.000224573
-3.13454e-05
9.03953e-05
0.000150279
0.000742946
0.000783112
0.00079942
0.000815002
0.000792221
0.000776946
0.000717058
0.000661965
0.000517798
0.000290065
-0.000336934
-0.000846364
-0.000855229
-0.00055608
-0.000132524
0.000166488
0.000398263
0.000530061
0.000630457
0.000695009
0.000178802
0.000182598
0.000172367
0.000178096
0.000172738
0.000191053
0.000176404
0.000180379
9.85842e-05
-4.70998e-05
-0.000623158
-0.00115617
-0.00109675
-0.00079392
-0.000407161
-0.000171887
6.36651e-06
8.86452e-05
0.000147106
0.000170011
0.000436225
0.000457184
0.000463222
0.000469377
0.000450237
0.000437235
0.000393373
0.000357336
0.000265654
0.000139177
-0.000326162
-0.000619479
-0.000506286
-0.000239308
3.3382e-05
0.000170561
0.000283668
0.000332568
0.000382402
0.000411146
0.00015571
0.000160364
0.000155459
0.000162793
0.000158087
0.000173542
0.0001643
0.000190711
0.000156032
0.000180795
-0.000199635
-0.00057498
-0.000488848
-0.000327796
-0.000117453
-2.51854e-05
6.67432e-05
9.93364e-05
0.000135092
0.000147461
0.000262087
0.000272738
0.000273578
0.00027594
0.000259711
0.000249606
0.000216593
0.000197889
0.000150796
0.000142186
-8.04724e-05
-0.000197929
-0.00012541
-1.02605e-05
0.000111778
0.000143317
0.000195035
0.000207678
0.000235585
0.000248172
0.000127417
0.000133201
0.000132051
0.000139114
0.00013522
0.000148707
0.000144317
0.000185268
0.000191591
0.00036549
0.000228864
-0.000146378
-0.000154544
-0.000139828
-4.82992e-05
-1.04642e-05
5.46054e-05
7.5818e-05
0.000106644
0.000117579
0.000166061
0.000171777
0.000170604
0.000171303
0.000157665
0.000149266
0.000122249
0.000109722
7.80122e-05
0.000145027
0.00025162
8.31085e-06
-2.29862e-05
-1.51285e-05
5.41999e-05
6.76943e-05
0.000114887
0.000125726
0.000149044
0.000156749
0.000102595
0.000108091
0.000108574
0.000114204
0.000110898
0.000120284
0.000116489
0.000141264
0.000130414
0.000185688
0.000108639
-6.10669e-05
-5.50069e-05
-7.63096e-05
-1.48828e-05
-4.41217e-06
4.26809e-05
5.72414e-05
8.33402e-05
9.28332e-05
0.000114241
0.000117216
0.000115552
0.00011549
0.000104498
9.73064e-05
7.62236e-05
6.32115e-05
4.13798e-05
4.32733e-05
7.52879e-05
4.56261e-06
2.90793e-05
2.14925e-05
6.1533e-05
5.81685e-05
8.66702e-05
8.85558e-05
0.000104331
0.000108024
8.37522e-05
8.79134e-05
8.87075e-05
9.25319e-05
8.95227e-05
9.50586e-05
9.22323e-05
0.000104233
9.67548e-05
0.000106167
6.34033e-05
-2.57708e-05
-1.74719e-05
-4.13727e-05
2.70385e-07
3.51298e-06
3.81429e-05
4.77375e-05
6.82168e-05
7.53644e-05
8.58469e-05
8.72616e-05
8.57902e-05
8.53495e-05
7.68479e-05
7.09563e-05
5.52525e-05
4.32093e-05
2.73496e-05
1.70963e-05
3.10673e-05
8.90669e-06
3.95516e-05
3.09228e-05
5.91437e-05
5.14581e-05
7.02986e-05
6.88863e-05
7.98529e-05
8.1434e-05
7.05907e-05
7.30793e-05
7.36967e-05
7.5872e-05
7.27918e-05
7.55032e-05
7.30505e-05
7.74844e-05
7.37223e-05
7.00318e-05
4.88286e-05
-5.59532e-06
4.98436e-07
-1.95364e-05
9.77088e-06
1.08768e-05
3.66475e-05
4.32835e-05
5.89248e-05
6.37443e-05
6.97832e-05
7.01584e-05
6.9187e-05
6.85417e-05
6.21014e-05
5.76117e-05
4.63494e-05
3.6126e-05
2.57498e-05
1.4174e-05
2.27154e-05
1.40059e-05
4.06993e-05
3.28552e-05
5.37737e-05
4.63983e-05
5.97186e-05
5.78351e-05
6.58405e-05
6.64009e-05
6.19733e-05
6.27537e-05
6.32755e-05
6.40732e-05
6.09155e-05
6.16958e-05
5.92005e-05
5.91669e-05
5.81565e-05
5.01509e-05
4.17971e-05
6.17951e-06
1.24169e-05
-2.86374e-06
1.84656e-05
1.86603e-05
3.74208e-05
4.20871e-05
5.3626e-05
5.64777e-05
6.06502e-05
5.99e-05
5.95961e-05
5.86836e-05
5.35685e-05
5.02934e-05
4.31028e-05
3.4102e-05
2.87385e-05
1.7612e-05
2.47518e-05
1.81893e-05
3.95054e-05
3.20035e-05
4.83899e-05
4.28836e-05
5.26179e-05
5.15149e-05
5.75761e-05
5.74e-05
5.66347e-05
5.57223e-05
5.65058e-05
5.63066e-05
5.29175e-05
5.26972e-05
5.01586e-05
4.71769e-05
4.82397e-05
3.88321e-05
3.79187e-05
1.3775e-05
2.15569e-05
1.00056e-05
2.60485e-05
2.59845e-05
3.90225e-05
4.25546e-05
5.08238e-05
5.19494e-05
5.53871e-05
5.33925e-05
5.39073e-05
5.25234e-05
4.82513e-05
4.63613e-05
4.14213e-05
3.35236e-05
3.27997e-05
2.11304e-05
2.92989e-05
2.07476e-05
3.82418e-05
3.11371e-05
4.40279e-05
4.07819e-05
4.79222e-05
4.80595e-05
5.25424e-05
5.1786e-05
5.32298e-05
5.10816e-05
5.25206e-05
5.11221e-05
4.79133e-05
4.72835e-05
4.51474e-05
3.97368e-05
4.27044e-05
3.23498e-05
3.67179e-05
1.90311e-05
2.86249e-05
1.88206e-05
3.18742e-05
3.18101e-05
4.0645e-05
4.37755e-05
4.91259e-05
4.92459e-05
5.25122e-05
4.85743e-05
5.05898e-05
4.86811e-05
4.45212e-05
4.37209e-05
4.04006e-05
3.27191e-05
3.58143e-05
2.34286e-05
3.31887e-05
2.24621e-05
3.79275e-05
3.04826e-05
4.14455e-05
4.00825e-05
4.45442e-05
4.64169e-05
4.96068e-05
4.80424e-05
5.1908e-05
4.76573e-05
5.04017e-05
4.77647e-05
4.41554e-05
4.48568e-05
4.21316e-05
3.51536e-05
4.1316e-05
2.8204e-05
3.78179e-05
2.15431e-05
3.38655e-05
2.48287e-05
3.55011e-05
3.65128e-05
4.15362e-05
4.52194e-05
4.80276e-05
4.69272e-05
5.0436e-05
4.50052e-05
4.88962e-05
4.5666e-05
4.18318e-05
4.22609e-05
3.99198e-05
3.07582e-05
3.81234e-05
2.37111e-05
3.64476e-05
2.2952e-05
3.87618e-05
2.95082e-05
3.98385e-05
3.99298e-05
4.23054e-05
4.59886e-05
4.72181e-05
4.54987e-05
5.1648e-05
4.3962e-05
4.96136e-05
4.62556e-05
4.10944e-05
4.3306e-05
4.0768e-05
3.1881e-05
4.16476e-05
2.5477e-05
3.97832e-05
2.26551e-05
3.78018e-05
2.78202e-05
3.81463e-05
4.00495e-05
4.07853e-05
4.67055e-05
4.787e-05
4.47968e-05
4.97996e-05
4.1304e-05
4.81384e-05
4.36351e-05
3.8553e-05
4.21142e-05
3.92338e-05
2.80943e-05
4.07059e-05
2.15408e-05
3.97999e-05
2.14094e-05
3.97683e-05
2.82894e-05
3.83134e-05
4.0655e-05
3.98384e-05
4.61775e-05
4.54097e-05
4.23579e-05
5.15809e-05
4.0999e-05
4.98869e-05
4.43378e-05
3.82376e-05
4.34672e-05
3.98883e-05
2.81281e-05
4.33003e-05
2.23746e-05
4.25739e-05
2.18414e-05
4.13438e-05
2.82649e-05
3.90613e-05
4.23776e-05
3.97983e-05
4.83153e-05
4.66749e-05
4.259e-05
5.032e-05
3.61973e-05
4.84389e-05
4.24859e-05
3.35924e-05
4.31059e-05
3.84676e-05
2.37125e-05
4.32005e-05
1.75613e-05
4.28614e-05
1.81873e-05
4.13903e-05
2.55361e-05
3.64867e-05
4.21196e-05
3.5797e-05
4.68724e-05
4.40685e-05
3.77546e-05
5.19968e-05
3.67517e-05
5.11376e-05
4.26626e-05
3.42813e-05
4.50314e-05
3.88693e-05
2.30872e-05
4.64877e-05
1.72761e-05
4.64491e-05
1.81403e-05
4.45506e-05
2.59858e-05
3.88388e-05
4.41546e-05
3.68658e-05
5.02126e-05
4.50739e-05
3.92709e-05
5.08526e-05
2.97446e-05
5.03948e-05
4.01906e-05
2.69522e-05
4.5664e-05
3.72658e-05
1.62226e-05
4.68396e-05
1.0306e-05
4.68092e-05
1.17545e-05
4.37453e-05
1.99916e-05
3.39265e-05
4.31199e-05
3.0228e-05
4.86201e-05
4.11711e-05
3.18077e-05
5.34607e-05
3.03165e-05
5.36146e-05
4.04701e-05
2.72378e-05
4.81928e-05
3.72416e-05
1.58871e-05
5.02496e-05
9.89646e-06
5.04622e-05
1.16664e-05
4.73813e-05
2.01687e-05
3.73125e-05
4.61799e-05
3.12057e-05
5.25287e-05
4.24361e-05
3.31409e-05
5.27998e-05
1.78451e-05
5.55084e-05
3.77822e-05
1.4122e-05
5.1997e-05
3.55988e-05
1.71458e-06
5.36632e-05
-3.46573e-06
5.35265e-05
-1.14567e-06
4.83544e-05
8.06632e-06
2.94436e-05
4.57278e-05
1.90339e-05
5.27079e-05
3.75455e-05
2.0901e-05
5.48584e-05
1.9497e-05
5.81931e-05
3.62171e-05
1.55906e-05
5.43527e-05
3.37642e-05
3.10411e-06
5.56286e-05
-2.67782e-06
5.54992e-05
-1.96989e-07
5.05459e-05
8.93343e-06
3.35672e-05
4.72908e-05
2.07021e-05
5.58975e-05
3.6923e-05
2.30748e-05
5.81351e-05
-5.06083e-06
6.85096e-05
3.1119e-05
-1.32645e-05
6.84229e-05
3.03226e-05
-2.79043e-05
6.69388e-05
-3.07262e-05
6.56262e-05
-2.72699e-05
5.74288e-05
-1.74171e-05
2.13814e-05
5.15638e-05
-3.39801e-06
6.32287e-05
2.89508e-05
-1.64715e-06
-0.0135235
-0.0129744
-0.0125251
-0.0121973
-0.0120053
-0.0119788
-0.0121339
-0.0124491
-0.0129135
-0.0134914
-0.0141465
-0.0148104
-0.0154018
-0.0158264
-0.0160201
-0.0159906
-0.0157499
-0.0153191
-0.0147566
-0.0141354
0.00193593
0.00199286
0.0019266
0.00179215
0.00163482
0.00151961
0.00138344
0.00120859
0.000973829
0.000688913
0.000342776
-2.42275e-05
-0.000336107
-0.000509727
-0.000464803
-0.000151803
0.00032644
0.000860636
0.00135211
0.00172393
-0.00274505
-0.00243704
-0.00222052
-0.00208533
-0.00207115
-0.00217852
-0.00237529
-0.00261505
-0.00294957
-0.00334695
-0.00384662
-0.00436887
-0.00481114
-0.00504975
-0.00507784
-0.00489599
-0.00453413
-0.00405722
-0.00356684
-0.0031208
0.00338067
0.00345826
0.00347693
0.00347975
0.00345719
0.00341317
0.00328753
0.00313211
0.00285386
0.00251772
0.00200307
0.00145006
0.00102283
0.000886576
0.00113601
0.0015819
0.00212971
0.00261933
0.00299012
0.00323855
-0.000285164
-0.000126027
-5.48622e-05
-1.84608e-05
-7.92334e-05
-0.000120285
-0.000230024
-0.000343502
-0.000610342
-0.000960998
-0.00160112
-0.00231445
-0.00284383
-0.00304729
-0.00291536
-0.00251696
-0.00195131
-0.00138214
-0.000896092
-0.000529382
0.0024765
0.0025958
0.00265193
0.00269865
0.00267581
0.00264242
0.00251103
0.00237408
0.00206324
0.00167537
0.000918021
0.000183443
-0.000249168
-0.000194335
0.000212701
0.000769771
0.0013067
0.00174188
0.00207414
0.00231525
0.000290409
0.000348288
0.00035538
0.00035777
0.000325965
0.000334203
0.000266258
0.000205433
-5.07357e-05
-0.000428725
-0.00130487
-0.00214734
-0.00257357
-0.00248008
-0.00197791
-0.0013429
-0.00075253
-0.000311486
-4.38386e-06
0.000187255
0.00158378
0.00167244
0.00171233
0.00174892
0.00171195
0.00168206
0.00156604
0.00144598
0.00115007
0.000728421
-0.000199883
-0.00096974
-0.00119872
-0.000856434
-0.000265907
0.000288434
0.000751619
0.00107261
0.00130808
0.0014714
0.000370218
0.000391707
0.000381532
0.000385067
0.000369575
0.000385306
0.00033611
0.000289104
7.12764e-05
-0.000312705
-0.00126872
-0.00205703
-0.00219775
-0.00176633
-0.00110672
-0.000574789
-0.000163694
8.24724e-05
0.000243671
0.000330087
0.000966721
0.00101955
0.00103983
0.00105681
0.00102484
0.00099896
0.000910099
0.000814946
0.000585234
0.000208942
-0.000674273
-0.00129013
-0.0011996
-0.000746582
-0.000182599
0.000203679
0.000502176
0.000676774
0.000812249
0.000901386
0.000329149
0.000341016
0.000331985
0.000340151
0.000328524
0.000341826
0.000306363
0.000283275
0.000133106
-0.000135374
-0.000945922
-0.00156618
-0.00139481
-0.000962088
-0.000460862
-0.000160897
7.00149e-05
0.000183697
0.000268884
0.000308864
0.000586225
0.000615003
0.0006227
0.000629984
0.000603734
0.000584263
0.000520728
0.000460662
0.000313134
8.68094e-05
-0.000575874
-0.000909855
-0.000694295
-0.000324878
3.1769e-05
0.000211512
0.000363985
0.00043543
0.000507329
0.000550414
0.000265951
0.000276302
0.000272184
0.000281674
0.000272212
0.000285737
0.000263501
0.000279495
0.000206506
0.000171331
-0.000373844
-0.000792187
-0.000621164
-0.000392863
-0.000119366
4.63829e-07
0.000123887
0.00017292
0.000226624
0.000249649
0.000364073
0.000379699
0.000381127
0.000384536
0.000362761
0.0003491
0.000303252
0.000274045
0.000198384
0.000146722
-0.000189844
-0.000322222
-0.000185439
-2.68139e-05
0.000136425
0.000181777
0.000256366
0.000279695
0.000322135
0.000343142
0.00020784
0.000217844
0.000217312
0.000226247
0.000218728
0.000232171
0.000220202
0.000261935
0.000253969
0.000423552
0.000205038
-0.000227893
-0.000194014
-0.000162092
-3.67232e-05
1.10403e-05
9.82072e-05
0.000129129
0.000173597
0.00019183
0.000238035
0.000247132
0.000246128
0.000247727
0.00022963
0.000219153
0.000182998
0.00016659
0.000120593
0.000187972
0.000272705
-3.08673e-05
-4.12547e-05
-2.51788e-05
7.10798e-05
9.16705e-05
0.000157715
0.000175579
0.000210263
0.00022359
0.000162624
0.000171217
0.000172135
0.000179224
0.000172985
0.000182627
0.000173502
0.000199839
0.000179789
0.000239125
0.000132108
-8.80826e-05
-6.91049e-05
-9.18677e-05
-6.27453e-06
9.2768e-06
7.46372e-05
9.61026e-05
0.000133246
0.000148002
0.000167898
0.000173166
0.000171491
0.000172097
0.000157481
0.000148774
0.00012077
0.000104833
7.36833e-05
7.4068e-05
9.73823e-05
-5.64383e-06
3.06923e-05
2.03569e-05
7.89134e-05
7.73695e-05
0.000120003
0.000125968
0.000150421
0.000157836
0.00013056
0.000136826
0.000137851
0.000142656
0.000137155
0.000142694
0.000135837
0.000147958
0.000134422
0.000142424
8.56076e-05
-3.37925e-05
-1.73112e-05
-4.70735e-05
1.15248e-05
1.66054e-05
6.49556e-05
7.88365e-05
0.000107746
0.000118455
0.000128375
0.000131237
0.000129674
0.000129635
0.000118182
0.00011105
9.01208e-05
7.51695e-05
5.28645e-05
3.85332e-05
4.83324e-05
9.57547e-06
5.01724e-05
3.66773e-05
7.81988e-05
6.98908e-05
9.9e-05
9.97106e-05
0.000117132
0.000121068
0.000109084
0.000112807
0.000113504
0.000116206
0.000110919
0.000113347
0.000107717
0.000111127
0.000103482
9.60252e-05
6.81684e-05
-4.55422e-06
8.11393e-06
-1.78041e-05
2.39135e-05
2.52894e-05
6.12086e-05
7.04322e-05
9.23489e-05
9.94147e-05
0.000105549
0.000106652
0.000105598
0.000105083
9.62075e-05
9.06985e-05
7.5558e-05
6.2507e-05
4.80414e-05
3.17105e-05
3.87947e-05
2.03286e-05
5.54099e-05
4.2811e-05
7.3653e-05
6.49774e-05
8.58694e-05
8.51611e-05
9.79688e-05
9.99344e-05
9.53682e-05
9.65981e-05
9.71721e-05
9.80892e-05
9.29247e-05
9.3249e-05
8.82063e-05
8.64326e-05
8.32337e-05
7.08174e-05
6.00031e-05
1.25758e-05
2.46423e-05
4.37258e-06
3.50655e-05
3.4934e-05
6.11152e-05
6.74163e-05
8.35456e-05
8.76643e-05
9.23723e-05
9.165e-05
9.13852e-05
9.03171e-05
8.30968e-05
7.90247e-05
6.90539e-05
5.72687e-05
4.98214e-05
3.39128e-05
4.14873e-05
2.7967e-05
5.63738e-05
4.46208e-05
6.87315e-05
6.20488e-05
7.73756e-05
7.71188e-05
8.67305e-05
8.72436e-05
8.69938e-05
8.57753e-05
8.67582e-05
8.63105e-05
8.1026e-05
8.03563e-05
7.57651e-05
7.05361e-05
7.0871e-05
5.68455e-05
5.61567e-05
2.36779e-05
3.70433e-05
2.13049e-05
4.46278e-05
4.41602e-05
6.24854e-05
6.72357e-05
7.87801e-05
8.04173e-05
8.47458e-05
8.20597e-05
8.28938e-05
8.10177e-05
7.48281e-05
7.24506e-05
6.54401e-05
5.47144e-05
5.36888e-05
3.708e-05
4.73026e-05
3.27307e-05
5.65904e-05
4.56582e-05
6.47757e-05
6.07927e-05
7.19632e-05
7.29934e-05
7.99955e-05
7.93643e-05
8.18322e-05
7.86248e-05
8.06368e-05
7.8566e-05
7.35306e-05
7.26463e-05
6.88549e-05
6.0698e-05
6.43552e-05
4.90192e-05
5.57069e-05
3.12651e-05
4.65662e-05
3.29283e-05
5.1937e-05
5.16637e-05
6.40946e-05
6.84457e-05
7.59621e-05
7.60302e-05
8.05823e-05
7.50679e-05
7.79655e-05
7.51655e-05
6.90859e-05
6.82279e-05
6.32789e-05
5.24858e-05
5.6969e-05
3.91395e-05
5.25473e-05
3.58214e-05
5.75763e-05
4.63576e-05
6.26443e-05
6.10809e-05
6.81487e-05
7.1291e-05
7.60921e-05
7.41314e-05
7.96472e-05
7.33652e-05
7.7375e-05
7.35642e-05
6.80059e-05
6.90258e-05
6.47792e-05
5.44799e-05
6.30235e-05
4.39831e-05
5.79933e-05
3.50515e-05
5.3713e-05
4.07423e-05
5.65467e-05
5.78076e-05
6.48985e-05
7.02139e-05
7.41857e-05
7.24861e-05
7.78263e-05
6.97812e-05
7.54707e-05
7.07914e-05
6.48712e-05
6.5945e-05
6.21517e-05
4.91891e-05
5.9864e-05
3.8875e-05
5.71841e-05
3.69042e-05
5.96677e-05
4.61347e-05
6.13955e-05
6.18754e-05
6.54923e-05
7.1149e-05
7.3039e-05
7.04456e-05
7.90646e-05
6.79866e-05
7.61212e-05
7.10388e-05
6.34597e-05
6.69243e-05
6.28515e-05
4.97735e-05
6.39625e-05
4.0321e-05
6.1332e-05
3.65619e-05
5.91934e-05
4.45509e-05
5.98001e-05
6.25387e-05
6.37077e-05
7.22008e-05
7.36052e-05
6.9244e-05
7.69906e-05
6.43883e-05
7.44652e-05
6.78039e-05
6.00491e-05
6.56097e-05
6.10132e-05
4.50185e-05
6.33604e-05
3.5564e-05
6.2009e-05
3.50582e-05
6.18284e-05
4.49935e-05
5.99534e-05
6.34992e-05
6.23055e-05
7.1798e-05
7.06576e-05
6.60374e-05
7.89862e-05
6.33165e-05
7.64563e-05
6.82565e-05
5.89958e-05
6.71924e-05
6.15562e-05
4.4264e-05
6.66248e-05
3.57673e-05
6.56565e-05
3.51637e-05
6.41144e-05
4.48344e-05
6.0818e-05
6.58267e-05
6.18996e-05
7.44421e-05
7.18419e-05
6.57187e-05
7.76465e-05
5.72061e-05
7.50214e-05
6.58827e-05
5.30943e-05
6.70146e-05
5.9814e-05
3.854e-05
6.70448e-05
2.96744e-05
6.6637e-05
3.05548e-05
6.46095e-05
4.13672e-05
5.7814e-05
6.57978e-05
5.6906e-05
7.30973e-05
6.86421e-05
5.97008e-05
7.96255e-05
5.68368e-05
7.8281e-05
6.57352e-05
5.28615e-05
6.94998e-05
6.00434e-05
3.67287e-05
7.12563e-05
2.82736e-05
7.12975e-05
2.96608e-05
6.86293e-05
4.12265e-05
6.0216e-05
6.84048e-05
5.73675e-05
7.71426e-05
6.94108e-05
6.05279e-05
7.84813e-05
4.80099e-05
7.78521e-05
6.2614e-05
4.36642e-05
7.07004e-05
5.80242e-05
2.79011e-05
7.23194e-05
1.9344e-05
7.2423e-05
2.15325e-05
6.8197e-05
3.366e-05
5.44494e-05
6.74838e-05
4.91086e-05
7.572e-05
6.46016e-05
5.13104e-05
8.15854e-05
4.72491e-05
8.19734e-05
6.24712e-05
4.24867e-05
7.42077e-05
5.76688e-05
2.58567e-05
7.68896e-05
1.72653e-05
7.73091e-05
1.9988e-05
7.27987e-05
3.25777e-05
5.77453e-05
7.12327e-05
4.89799e-05
8.05485e-05
6.54625e-05
5.15165e-05
8.10204e-05
3.20609e-05
8.47313e-05
5.90009e-05
2.64998e-05
7.92912e-05
5.54972e-05
8.52756e-06
8.15071e-05
8.56363e-07
8.15106e-05
4.30631e-06
7.43559e-05
1.77626e-05
4.84912e-05
7.09304e-05
3.42188e-05
8.12005e-05
5.93327e-05
3.66964e-05
8.36175e-05
3.21539e-05
8.8582e-05
5.66966e-05
2.61622e-05
8.30216e-05
5.30138e-05
7.89079e-06
8.46982e-05
-3.46737e-07
8.46819e-05
3.41093e-06
7.7466e-05
1.69012e-05
5.24194e-05
7.30979e-05
3.44335e-05
8.54458e-05
5.79284e-05
3.74578e-05
8.72205e-05
4.28994e-06
0.000100637
5.06049e-05
-6.50041e-06
9.9495e-05
4.89256e-05
-2.72246e-05
9.7916e-05
-3.21892e-05
9.65238e-05
-2.73044e-05
8.53616e-05
-1.30481e-05
3.84677e-05
7.79171e-05
7.13184e-06
9.38498e-05
4.83529e-05
9.5416e-06
-0.0149427
-0.0143175
-0.0138036
-0.0134282
-0.0132142
-0.013198
-0.0133869
-0.013759
-0.0143002
-0.0149678
-0.0157171
-0.0164689
-0.017131
-0.0175997
-0.0178064
-0.0177597
-0.0174744
-0.016979
-0.0163396
-0.0156362
0.00141773
0.00152659
0.0014973
0.00138386
0.00123667
0.00111308
0.000936712
0.000704526
0.000394398
2.23026e-05
-0.000417303
-0.000872175
-0.0012517
-0.00146049
-0.00140787
-0.00105197
-0.000505946
0.000111044
0.000688032
0.00113901
-0.00310288
-0.00274652
-0.0025068
-0.00236818
-0.00237839
-0.00251939
-0.00276395