/*--------------------------------*- C++ -*----------------------------------*\
| =========                 |                                                 |
| \\      /  F ield         | OpenFOAM: The Open Source CFD Toolbox           |
|  \\    /   O peration     | Version:  2.4.0                                 |
|   \\  /    A nd           | Web:      www.OpenFOAM.org                      |
|    \\/     M anipulation  |                                                 |
\*---------------------------------------------------------------------------*/
FoamFile
{
    version     2.0;
    format      ascii;
    class       volScalarField;
    location    "360";
    object      p;
}
// * * * * * * * * * * * * * * * * * * * * * * * * * * * * * * * * * * * * * //

dimensions      [0 2 -2 0 0 0 0];

internalField   nonuniform List<scalar> 
283312
(
-0.00626044
-0.00631914
-0.00655876
-0.00689922
-0.00725249
-0.00754932
-0.00778166
-0.00794439
-0.00806992
-0.00818178
-0.00830019
-0.0084118
-0.00848452
-0.00846268
-0.00831255
-0.00804118
-0.00765974
-0.00720488
-0.00675772
-0.00641647
0.0021503
0.00164748
0.00122026
0.000949832
0.000849262
0.000913537
0.00105546
0.00119554
0.00130562
0.00139324
0.00146075
0.00153983
0.00166828
0.00186877
0.00215413
0.00252351
0.00283965
0.00299214
0.00291726
0.00261349
-0.00230182
-0.00215095
-0.00192782
-0.00168792
-0.00149602
-0.0013996
-0.00138215
-0.00138956
-0.00143987
-0.00148291
-0.00151453
-0.0014942
-0.00142311
-0.00132326
-0.00127612
-0.00138076
-0.00161873
-0.00191025
-0.00217035
-0.0023126
0.0014812
0.0016532
0.00179642
0.00191083
0.00199354
0.00206192
0.00206838
0.00207427
0.00204042
0.00205046
0.00206708
0.00211428
0.00214361
0.00210316
0.00197826
0.00174034
0.00149329
0.00131202
0.00125857
0.00133272
-0.000743251
-0.000545608
-0.000429428
-0.000351642
-0.000348786
-0.000336569
-0.000348637
-0.000335558
-0.000366126
-0.000343919
-0.000353832
-0.000410026
-0.000585962
-0.000899434
-0.00131976
-0.00165587
-0.00174594
-0.00160597
-0.00132282
-0.00100837
0.00120278
0.00131185
0.0013694
0.0014148
0.00142841
0.00143561
0.00140097
0.00138762
0.0013229
0.00133193
0.00127526
0.00115069
0.000876305
0.0005206
0.000258407
0.000189099
0.00031756
0.000559616
0.000823886
0.00104659
-0.000150206
-0.000110859
-0.000104045
-9.83219e-05
-0.000109679
-8.47085e-05
-8.52544e-05
-5.68651e-05
-8.86062e-05
-6.4581e-05
-0.000180853
-0.00045246
-0.000863897
-0.00126823
-0.00139982
-0.00124795
-0.000936117
-0.00062407
-0.000382207
-0.000229453
0.000762424
0.000811291
0.000834673
0.000859475
0.000847728
0.000844058
0.000806449
0.000785946
0.000716998
0.000706332
0.000547118
0.000233343
-0.000170394
-0.000360225
-0.00030828
-7.76576e-05
0.000206078
0.0004323
0.000594167
0.000697499
-2.88393e-07
1.43142e-06
-9.46185e-06
-1.10733e-05
-1.25034e-05
9.38692e-06
1.11832e-05
3.10021e-05
3.17215e-06
6.40248e-06
-0.000188137
-0.000594996
-0.000999054
-0.00108232
-0.00086858
-0.000578615
-0.000314631
-0.000150651
-5.46817e-05
-1.25384e-05
0.000440963
0.000465451
0.000476169
0.000486612
0.000473773
0.000465364
0.000434945
0.00041258
0.000359287
0.000342029
0.000161589
-0.000209086
-0.000460756
-0.00044675
-0.000214914
9.83199e-06
0.000194129
0.000299297
0.000370001
0.000411596
4.39116e-05
4.18988e-05
3.30346e-05
3.49035e-05
3.41503e-05
4.91765e-05
4.94992e-05
6.57282e-05
4.8557e-05
7.31812e-05
-0.000103883
-0.000533816
-0.000715321
-0.000633052
-0.000389994
-0.00020523
-6.74369e-05
-4.52202e-06
3.23868e-05
4.30636e-05
0.000250673
0.000262386
0.000266158
0.000269286
0.000258116
0.000249345
0.000225768
0.000208138
0.0001728
0.000191746
5.5055e-05
-0.000227176
-0.000331659
-0.000225653
-4.52891e-05
6.88277e-05
0.000154394
0.000190789
0.000220932
0.000236845
5.49959e-05
5.49697e-05
5.04868e-05
5.39404e-05
5.27448e-05
6.39952e-05
6.36144e-05
8.71269e-05
8.37332e-05
0.000190033
7.55805e-05
-0.00027185
-0.000355842
-0.000290301
-0.000144959
-6.33564e-05
4.53972e-06
2.85685e-05
4.85542e-05
5.31586e-05
0.000145384
0.000150539
0.00015072
0.000151008
0.000141229
0.000133437
0.000114301
0.00010211
8.1503e-05
0.000138787
9.79973e-05
-5.14459e-05
-0.000108565
-5.33795e-05
3.36291e-05
7.05249e-05
0.000108095
0.000117877
0.000132809
0.00013859
5.2825e-05
5.45466e-05
5.30695e-05
5.66277e-05
5.54193e-05
6.43979e-05
6.4681e-05
9.31959e-05
0.000105151
0.000280003
0.00026695
-5.07427e-05
-0.000137079
-0.000139626
-7.51578e-05
-3.48442e-05
1.10741e-05
2.68248e-05
4.39814e-05
4.8879e-05
8.89728e-05
9.1166e-05
8.99445e-05
8.91561e-05
8.08133e-05
7.39344e-05
5.75788e-05
4.69483e-05
2.8931e-05
8.59849e-05
0.000195868
3.70194e-05
-1.94944e-05
-1.95021e-05
2.14483e-05
3.48373e-05
6.33433e-05
7.01333e-05
8.18498e-05
8.49058e-05
4.62999e-05
4.85018e-05
4.84051e-05
5.12448e-05
5.01407e-05
5.61339e-05
5.59317e-05
7.23056e-05
6.84492e-05
0.000106967
6.64803e-05
-3.07975e-05
-4.01476e-05
-5.48958e-05
-2.09627e-05
-1.19836e-05
1.46856e-05
2.34217e-05
3.71819e-05
4.17459e-05
5.94658e-05
6.02104e-05
5.87031e-05
5.76106e-05
5.08872e-05
4.50161e-05
3.22292e-05
2.18141e-05
9.75046e-06
9.07084e-06
4.07796e-05
9.84023e-06
1.88846e-05
1.65264e-05
3.63354e-05
3.51212e-05
4.90583e-05
4.91669e-05
5.61675e-05
5.70737e-05
3.95339e-05
4.13619e-05
4.16485e-05
4.35044e-05
4.24027e-05
4.58409e-05
4.57898e-05
5.38528e-05
5.1448e-05
5.81445e-05
3.35824e-05
-1.54678e-05
-1.68225e-05
-3.05332e-05
-8.39347e-06
-4.59546e-06
1.45381e-05
2.06029e-05
3.15645e-05
3.53219e-05
4.37547e-05
4.38541e-05
4.25602e-05
4.14696e-05
3.6326e-05
3.16036e-05
2.21184e-05
1.32101e-05
4.42047e-06
-2.43169e-06
1.15666e-05
6.4332e-06
2.27522e-05
2.0535e-05
3.41592e-05
3.02652e-05
3.88765e-05
3.73998e-05
4.20668e-05
4.21592e-05
3.40892e-05
3.51943e-05
3.54489e-05
3.64055e-05
3.50971e-05
3.67074e-05
3.64851e-05
3.97619e-05
3.90698e-05
3.78452e-05
2.5403e-05
-5.21849e-06
-6.19868e-06
-1.71444e-05
-1.957e-06
4.17359e-07
1.46877e-05
1.92516e-05
2.77857e-05
3.0506e-05
3.50397e-05
3.48176e-05
3.39238e-05
3.29494e-05
2.91387e-05
2.55888e-05
1.88239e-05
1.17235e-05
5.85015e-06
-8.99881e-07
6.82247e-06
6.99416e-06
2.18312e-05
1.97627e-05
2.98163e-05
2.6089e-05
3.2014e-05
3.05641e-05
3.39683e-05
3.38236e-05
3.02364e-05
3.05311e-05
3.07335e-05
3.09523e-05
2.94813e-05
2.98309e-05
2.91987e-05
2.96694e-05
3.00636e-05
2.61861e-05
2.10773e-05
8.03078e-07
1.08074e-06
-6.93644e-06
3.89907e-06
5.44253e-06
1.58323e-05
1.92206e-05
2.55841e-05
2.73262e-05
3.01354e-05
2.95092e-05
2.90684e-05
2.81489e-05
2.52041e-05
2.26134e-05
1.84083e-05
1.25079e-05
9.32105e-06
3.25363e-06
8.51768e-06
8.25116e-06
2.00192e-05
1.76218e-05
2.55654e-05
2.2897e-05
2.72401e-05
2.64377e-05
2.91115e-05
2.87998e-05
2.77245e-05
2.71994e-05
2.75139e-05
2.7256e-05
2.55548e-05
2.52157e-05
2.42516e-05
2.28892e-05
2.39469e-05
1.92741e-05
1.82359e-05
4.74235e-06
6.76479e-06
1.0009e-06
9.01732e-06
1.00761e-05
1.72634e-05
1.98359e-05
2.44488e-05
2.52627e-05
2.72852e-05
2.61666e-05
2.61899e-05
2.51851e-05
2.2806e-05
2.12115e-05
1.83646e-05
1.35328e-05
1.28639e-05
6.64564e-06
1.1596e-05
9.03668e-06
1.84176e-05
1.58929e-05
2.20783e-05
2.06849e-05
2.39751e-05
2.39785e-05
2.60702e-05
2.56147e-05
2.59824e-05
2.49956e-05
2.55811e-05
2.47146e-05
2.31275e-05
2.24153e-05
2.15401e-05
1.86963e-05
2.03115e-05
1.52492e-05
1.69764e-05
7.59503e-06
1.11487e-05
6.42191e-06
1.29374e-05
1.36572e-05
1.85851e-05
2.06931e-05
2.37082e-05
2.40419e-05
2.56832e-05
2.36323e-05
2.44625e-05
2.33711e-05
2.10954e-05
2.01454e-05
1.83335e-05
1.39676e-05
1.52091e-05
8.8845e-06
1.39937e-05
9.68588e-06
1.75767e-05
1.46538e-05
1.99126e-05
1.95074e-05
2.15967e-05
2.26077e-05
2.42752e-05
2.3471e-05
2.53561e-05
2.33739e-05
2.45209e-05
2.30662e-05
2.12489e-05
2.12697e-05
1.98785e-05
1.62494e-05
1.92617e-05
1.2745e-05
1.72148e-05
8.94737e-06
1.43051e-05
1.02015e-05
1.53525e-05
1.64873e-05
1.93825e-05
2.15422e-05
2.32049e-05
2.2877e-05
2.43537e-05
2.18399e-05
2.35293e-05
2.18166e-05
1.99194e-05
1.95246e-05
1.8411e-05
1.34001e-05
1.67343e-05
9.66604e-06
1.58083e-05
9.86194e-06
1.75934e-05
1.35324e-05
1.85248e-05
1.87903e-05
2.01247e-05
2.2004e-05
2.27503e-05
2.20938e-05
2.52474e-05
2.14842e-05
2.4095e-05
2.24961e-05
1.97707e-05
2.03964e-05
1.92026e-05
1.46954e-05
1.91847e-05
1.13699e-05
1.79715e-05
9.74177e-06
1.6574e-05
1.21862e-05
1.71642e-05
1.85429e-05
1.91144e-05
2.23219e-05
2.33084e-05
2.18308e-05
2.38668e-05
1.99665e-05
2.2994e-05
2.08005e-05
1.83146e-05
1.95174e-05
1.82046e-05
1.23659e-05
1.82224e-05
8.86012e-06
1.75733e-05
8.99686e-06
1.77405e-05
1.26347e-05
1.73377e-05
1.87881e-05
1.86756e-05
2.17851e-05
2.16504e-05
2.036e-05
2.50908e-05
2.02269e-05
2.41823e-05
2.1522e-05
1.85617e-05
2.04247e-05
1.88256e-05
1.29631e-05
1.98478e-05
1.00232e-05
1.92224e-05
9.63902e-06
1.85582e-05
1.27671e-05
1.78889e-05
1.97641e-05
1.89149e-05
2.31222e-05
2.27053e-05
2.08937e-05
2.40745e-05
1.72728e-05
2.2962e-05
2.03891e-05
1.5708e-05
1.99774e-05
1.79345e-05
1.03639e-05
1.94034e-05
7.12151e-06
1.89803e-05
7.44132e-06
1.82966e-05
1.11381e-05
1.61293e-05
1.93932e-05
1.64132e-05
2.18598e-05
2.10132e-05
1.78092e-05
2.51567e-05
1.83514e-05
2.46875e-05
2.07585e-05
1.69004e-05
2.11046e-05
1.84035e-05
1.0718e-05
2.13766e-05
7.74029e-06
2.11055e-05
8.06955e-06
2.02368e-05
1.19669e-05
1.79826e-05
2.06307e-05
1.77136e-05
2.40116e-05
2.19836e-05
1.94801e-05
2.41614e-05
1.40334e-05
2.38e-05
1.92433e-05
1.23662e-05
2.1149e-05
1.74451e-05
6.64992e-06
2.11116e-05
3.61758e-06
2.08201e-05
4.26154e-06
1.92982e-05
8.33164e-06
1.46238e-05
1.96947e-05
1.35705e-05
2.25531e-05
1.94924e-05
1.47246e-05
2.58248e-05
1.55016e-05
2.56642e-05
1.97879e-05
1.37012e-05
2.24068e-05
1.76997e-05
7.68155e-06
2.29571e-05
4.60316e-06
2.2825e-05
5.35443e-06
2.14849e-05
9.47865e-06
1.73936e-05
2.16437e-05
1.52265e-05
2.49696e-05
2.08144e-05
1.66302e-05
2.50956e-05
7.5931e-06
2.64026e-05
1.82603e-05
5.40707e-06
2.43629e-05
1.68512e-05
-1.22069e-06
2.46723e-05
-3.69772e-06
2.4328e-05
-2.64171e-06
2.17223e-05
1.91146e-06
1.20329e-05
2.10982e-05
7.47607e-06
2.46238e-05
1.78335e-05
8.76855e-06
2.62205e-05
1.03456e-05
2.75114e-05
1.76237e-05
8.21574e-06
2.50174e-05
1.59407e-05
1.72258e-06
2.5157e-05
-1.23746e-06
2.48644e-05
-1.74686e-07
2.26585e-05
4.20217e-06
1.55221e-05
2.18374e-05
1.01679e-05
2.62428e-05
1.79971e-05
1.17873e-05
2.82923e-05
-6.75322e-06
3.40775e-05
1.4424e-05
-1.19476e-05
3.40237e-05
1.38368e-05
-1.98909e-05
3.23699e-05
-2.06386e-05
3.13029e-05
-1.89377e-05
2.70487e-05
-1.40558e-05
6.79365e-06
2.45865e-05
-6.66378e-06
3.09124e-05
1.29241e-05
-5.59972e-06
-0.0109694
-0.0105766
-0.0102703
-0.0100585
-0.00994179
-0.00992858
-0.0100486
-0.0102825
-0.0106243
-0.0110501
-0.0115377
-0.0120361
-0.0124823
-0.0127984
-0.0129328
-0.0128961
-0.0126966
-0.0123498
-0.0119052
-0.0114261
0.00232983
0.00228428
0.00215315
0.0019916
0.00183749
0.00174729
0.00167812
0.00159288
0.00147071
0.00131631
0.00111419
0.000890961
0.000701526
0.000606838
0.000668299
0.000935681
0.0013125
0.00170563
0.00203789
0.00225327
-0.00233475
-0.00209839
-0.00191192
-0.00177538
-0.00172529
-0.00178075
-0.00190809
-0.0020575
-0.00227506
-0.00253076
-0.00286205
-0.00321337
-0.00351694
-0.00368815
-0.00372587
-0.0036516
-0.00346423
-0.0031868
-0.00288552
-0.00259612
0.00290592
0.0029698
0.0029944
0.00301214
0.00301723
0.00301734
0.00295074
0.00287273
0.00270622
0.00251347
0.00218574
0.00181654
0.00150919
0.00137773
0.00150432
0.00176329
0.00210169
0.00240731
0.00264216
0.00280569
-0.000459154
-0.000311089
-0.000237845
-0.000190495
-0.000227696
-0.000243205
-0.000304364
-0.000351016
-0.000506194
-0.000702079
-0.0011223
-0.00162797
-0.00205665
-0.00228647
-0.00231124
-0.00212956
-0.00177224
-0.00136393
-0.000982505
-0.000674985
0.00202001
0.00212187
0.00217265
0.00221859
0.00221502
0.00220501
0.00212224
0.00205073
0.00185534
0.0016315
0.00111861
0.000582968
0.000207634
0.000146445
0.000360041
0.000716989
0.00109488
0.00142257
0.0016866
0.00188497
5.91834e-05
0.00010349
0.000107856
0.00011231
9.00902e-05
0.000112169
8.18285e-05
7.45621e-05
-7.21409e-05
-0.000282285
-0.000888875
-0.00153436
-0.00193603
-0.00199114
-0.00169628
-0.00124454
-0.000787543
-0.000431221
-0.00017897
-2.26132e-05
0.00125283
0.00132309
0.00135592
0.00139003
0.00136564
0.00135183
0.00127486
0.00120895
0.00102104
0.000769738
0.000116396
-0.000485501
-0.000750296
-0.000566952
-0.000170593
0.000239661
0.000599396
0.000852784
0.00103843
0.00116572
0.000172442
0.000182492
0.000170243
0.000171501
0.000164072
0.00018833
0.000168427
0.000163549
4.04033e-05
-0.000181494
-0.000862151
-0.0014996
-0.00171203
-0.00145024
-0.0009656
-0.000551697
-0.000225273
-3.24966e-05
8.91343e-05
0.0001491
0.00074156
0.000781759
0.000798095
0.000813723
0.000790995
0.000775749
0.000715916
0.000660832
0.000516832
0.000289355
-0.000336511
-0.000844399
-0.000852372
-0.000553545
-0.000131407
0.000166404
0.000397397
0.00052884
0.000629086
0.000693615
0.000178091
0.000181981
0.000171829
0.000177621
0.000172285
0.000190588
0.000175927
0.000179848
9.81072e-05
-4.74689e-05
-0.000622726
-0.0011546
-0.00109456
-0.000792099
-0.000406372
-0.000171915
5.8129e-06
8.78795e-05
0.000146278
0.000169228
0.000435425
0.000456392
0.000462438
0.000468617
0.000449505
0.000436516
0.000392697
0.000356651
0.000265079
0.000138663
-0.0003261
-0.00061865
-0.000505195
-0.0002384
3.36911e-05
0.000170399
0.000283165
0.0003319
0.000381642
0.00041036
0.000155247
0.00015995
0.000155085
0.000162455
0.000157762
0.000173216
0.00016397
0.000190352
0.00015569
0.000180449
-0.000199542
-0.00057444
-0.00048813
-0.000327257
-0.00011732
-2.53538e-05
6.63576e-05
9.8861e-05
0.00013458
0.000146967
0.000261623
0.000272277
0.000273117
0.000275492
0.000259278
0.000249182
0.000216203
0.000197488
0.000150472
0.000141824
-8.05717e-05
-0.00019767
-0.000125075
-1.0024e-05
0.000111784
0.000143155
0.000194733
0.000207303
0.000235157
0.000247724
0.000127115
0.000132924
0.000131794
0.000138878
0.000134994
0.000148488
0.000144103
0.00018505
0.000191382
0.000365269
0.000228802
-0.000146389
-0.000154502
-0.000139804
-4.8387e-05
-1.06433e-05
5.43426e-05
7.55203e-05
0.000106323
0.000117266
0.000165785
0.000171502
0.000170328
0.000171036
0.000157406
0.000149016
0.000122027
0.000109501
7.78614e-05
0.000144869
0.000251581
8.32627e-06
-2.29915e-05
-1.51689e-05
5.41116e-05
6.75632e-05
0.000114701
0.000125508
0.000148793
0.000156486
0.000102395
0.000107905
0.000108396
0.000114041
0.000110742
0.000120139
0.000116352
0.000141137
0.000130303
0.000185619
0.000108628
-6.10836e-05
-5.50031e-05
-7.63313e-05
-1.49642e-05
-4.52819e-06
4.25176e-05
5.70573e-05
8.31376e-05
9.26318e-05
0.00011407
0.000117046
0.000115381
0.000115326
0.00010434
9.71572e-05
7.60935e-05
6.30903e-05
4.13031e-05
4.32112e-05
7.52726e-05
4.57507e-06
2.90818e-05
2.14778e-05
6.14859e-05
5.80978e-05
8.65623e-05
8.84273e-05
0.000104179
0.000107863
8.36176e-05
8.77867e-05
8.85843e-05
9.24196e-05
8.94152e-05
9.49624e-05
9.21434e-05
0.000104155
9.66913e-05
0.000106124
6.33952e-05
-2.57758e-05
-1.74711e-05
-4.13873e-05
2.19811e-07
3.44073e-06
3.80397e-05
4.7621e-05
6.80855e-05
7.52324e-05
8.57357e-05
8.71524e-05
8.56795e-05
8.52455e-05
7.67472e-05
7.08653e-05
5.51732e-05
4.31425e-05
2.73069e-05
1.70734e-05
3.10606e-05
8.917e-06
3.95538e-05
3.09181e-05
5.91162e-05
5.14168e-05
7.02316e-05
6.88059e-05
7.97551e-05
8.13305e-05
7.04988e-05
7.29925e-05
7.36109e-05
7.57946e-05
7.27175e-05
7.54393e-05
7.2992e-05
7.74367e-05
7.36837e-05
7.00048e-05
4.88206e-05
-5.59419e-06
4.975e-07
-1.95446e-05
9.73804e-06
1.08312e-05
3.65804e-05
4.32078e-05
5.88375e-05
6.36559e-05
6.97079e-05
7.00854e-05
6.91128e-05
6.84736e-05
6.20353e-05
5.7555e-05
4.62989e-05
3.60886e-05
2.57242e-05
1.4167e-05
2.27125e-05
1.4014e-05
4.06996e-05
3.28536e-05
5.37551e-05
4.6372e-05
5.96736e-05
5.77817e-05
6.57743e-05
6.63314e-05
6.19093e-05
6.26935e-05
6.32152e-05
6.40197e-05
6.08641e-05
6.16538e-05
5.91615e-05
5.9139e-05
5.81324e-05
5.01374e-05
4.17906e-05
6.18376e-06
1.24152e-05
-2.86739e-06
1.84435e-05
1.86311e-05
3.73757e-05
4.20366e-05
5.35663e-05
5.64172e-05
6.05973e-05
5.98497e-05
5.95448e-05
5.86377e-05
5.35239e-05
5.02575e-05
4.30696e-05
3.40814e-05
2.87217e-05
1.76115e-05
2.475e-05
1.81969e-05
3.95044e-05
3.20035e-05
4.83759e-05
4.28655e-05
5.25858e-05
5.14776e-05
5.75294e-05
5.73515e-05
5.65891e-05
5.56799e-05
5.64629e-05
5.62693e-05
5.28817e-05
5.26698e-05
5.01322e-05
4.7162e-05
4.82244e-05
3.88283e-05
3.79138e-05
1.3781e-05
2.15548e-05
1.00047e-05
2.6033e-05
2.59653e-05
3.89912e-05
4.25199e-05
5.07817e-05
5.1907e-05
5.53489e-05
5.33569e-05
5.38708e-05
5.24916e-05
4.82206e-05
4.63384e-05
4.13987e-05
3.35133e-05
3.27878e-05
2.11336e-05
2.92967e-05
2.07556e-05
3.824e-05
3.11381e-05
4.40168e-05
4.07689e-05
4.78983e-05
4.80327e-05
5.25082e-05
5.17511e-05
5.31966e-05
5.10512e-05
5.24897e-05
5.10959e-05
4.78883e-05
4.72659e-05
4.51291e-05
3.97305e-05
4.26938e-05
3.23523e-05
3.6714e-05
1.90385e-05
2.86225e-05
1.88214e-05
3.18627e-05
3.17972e-05
4.06222e-05
4.3751e-05
4.90952e-05
4.92154e-05
5.24838e-05
4.85486e-05
5.05632e-05
4.86585e-05
4.44999e-05
4.37062e-05
4.03846e-05
3.27156e-05
3.5805e-05
2.34345e-05
3.31858e-05
2.24706e-05
3.7925e-05
3.04843e-05
4.14363e-05
4.00731e-05
4.45257e-05
4.6397e-05
4.9581e-05
4.80168e-05
5.18831e-05
4.76352e-05
5.03791e-05
4.77459e-05
4.41382e-05
4.48456e-05
4.21186e-05
3.51534e-05
4.13078e-05
2.82109e-05
3.78142e-05
2.15517e-05
3.38626e-05
2.48309e-05
3.5492e-05
3.65038e-05
4.15189e-05
4.52015e-05
4.80046e-05
4.69046e-05
5.04145e-05
4.49864e-05
4.88766e-05
4.56494e-05
4.18171e-05
4.22514e-05
3.99078e-05
3.07597e-05
3.81149e-05
2.37195e-05
3.64434e-05
2.29612e-05
3.87584e-05
2.95108e-05
3.98306e-05
3.99229e-05
4.22907e-05
4.59737e-05
4.71983e-05
4.54795e-05
5.16289e-05
4.39459e-05
4.95967e-05
4.62416e-05
4.10829e-05
4.32989e-05
4.07585e-05
3.18855e-05
4.16401e-05
2.54872e-05
3.97788e-05
2.26652e-05
3.77981e-05
2.78234e-05
3.81386e-05
4.00432e-05
4.07716e-05
4.66921e-05
4.78521e-05
4.47798e-05
4.97829e-05
4.12901e-05
4.81235e-05
4.36225e-05
3.85433e-05
4.21076e-05
3.9224e-05
2.80998e-05
4.06968e-05
2.15519e-05
3.97938e-05
2.14197e-05
3.97637e-05
2.82931e-05
3.83064e-05
4.06502e-05
3.98265e-05
4.61664e-05
4.53942e-05
4.23434e-05
5.15658e-05
4.09868e-05
4.98739e-05
4.43273e-05
3.82307e-05
4.34624e-05
3.98808e-05
2.81368e-05
4.3292e-05
2.23881e-05
4.25678e-05
2.18532e-05
4.1339e-05
2.82693e-05
3.90544e-05
4.23731e-05
3.9787e-05
4.8305e-05
4.66605e-05
4.25767e-05
5.03069e-05
3.61871e-05
4.84271e-05
4.24757e-05
3.35872e-05
4.31004e-05
3.84587e-05
2.37223e-05
4.31893e-05
1.75755e-05
4.28525e-05
1.81994e-05
4.13841e-05
2.55411e-05
3.64803e-05
4.21164e-05
3.57871e-05
4.68644e-05
4.40564e-05
3.77436e-05
5.19844e-05
3.67425e-05
5.11271e-05
4.26541e-05
3.42783e-05
4.50273e-05
3.88627e-05
2.31001e-05
4.6477e-05
1.72932e-05
4.64402e-05
1.81544e-05
4.4544e-05
2.59917e-05
3.88323e-05
4.41515e-05
3.68561e-05
5.02048e-05
4.50621e-05
3.92602e-05
5.08422e-05
2.97377e-05
5.03849e-05
4.01817e-05
2.69518e-05
4.56577e-05
3.72566e-05
1.6238e-05
4.68241e-05
1.03249e-05
4.67959e-05
1.17698e-05
4.37365e-05
1.99987e-05
3.39205e-05
4.31182e-05
3.02199e-05
4.86147e-05
4.11618e-05
3.17994e-05
5.34503e-05
3.03098e-05
5.36054e-05
4.04625e-05
2.72389e-05
4.81873e-05
3.72348e-05
1.59052e-05
5.02344e-05
9.91821e-06
5.04489e-05
1.16838e-05
4.73721e-05
2.01767e-05
3.73061e-05
4.61779e-05
3.11972e-05
5.2523e-05
4.24265e-05
3.31322e-05
5.27916e-05
1.78417e-05
5.54991e-05
3.77737e-05
1.41285e-05
5.19867e-05
3.55882e-05
1.73923e-06
5.36397e-05
-3.43904e-06
5.35058e-05
-1.12464e-06
4.8341e-05
8.07702e-06
2.94381e-05
4.57273e-05
1.90274e-05
5.27054e-05
3.75389e-05
2.08952e-05
5.48499e-05
1.94933e-05
5.8184e-05
3.62094e-05
1.55976e-05
5.43429e-05
3.37558e-05
3.13006e-06
5.56054e-05
-2.64918e-06
5.54787e-05
-1.74446e-07
5.05322e-05
8.94484e-06
3.35611e-05
4.72898e-05
2.06952e-05
5.58943e-05
3.69153e-05
2.30682e-05
5.81292e-05
-5.05896e-06
6.84986e-05
3.111e-05
-1.3245e-05
6.8402e-05
3.03095e-05
-2.78611e-05
6.6899e-05
-3.06838e-05
6.55911e-05
-2.72368e-05
5.74063e-05
-1.73988e-05
2.1376e-05
5.15641e-05
-3.40246e-06
6.32299e-05
2.89469e-05
-1.65048e-06
-0.0135071
-0.0129577
-0.0125079
-0.0121798
-0.0119875
-0.0119603
-0.0121147
-0.0124292
-0.0128928
-0.01347
-0.0141248
-0.0147886
-0.0153805
-0.0158059
-0.0160005
-0.0159719
-0.015732
-0.0153021
-0.0147401
-0.0141191
0.00194087
0.00199793
0.00193151
0.00179687
0.00163928
0.00152368
0.00138741
0.00121246
0.000977619
0.000692652
0.000346443
-2.07009e-05
-0.000332869
-0.000506766
-0.000462326
-0.000149853
0.000328693
0.000863514
0.00135581
0.00172839
-0.00274287
-0.00243412
-0.0022168
-0.00208092
-0.00206613
-0.00217303
-0.00236945
-0.00260876
-0.00294286
-0.00333987
-0.0038394
-0.00436187
-0.00480483
-0.00504451
-0.00507348
-0.00489225
-0.00453119
-0.00405489
-0.00356499
-0.00311903
0.00337721
0.00345519
0.00347421
0.00347735
0.00345498
0.00341118
0.00328565
0.00313039
0.00285229
0.0025163
0.00200175
0.00144866
0.00102089
0.000883998
0.00113286
0.00157821
0.00212573
0.00261523
0.00298608
0.00323475
-0.000286165
-0.000126654
-5.51214e-05
-1.83143e-05
-7.87703e-05
-0.000119531
-0.000229034
-0.000342239
-0.000608759
-0.00095906
-0.00159866
-0.00231159
-0.0028413
-0.00304588
-0.00291511
-0.00251768
-0.00195253
-0.00138352
-0.000897479
-0.000530634
0.00247243
0.002592
0.00264836
0.0026953
0.00267266
0.00263942
0.00250816
0.00237133
0.00206073
0.00167319
0.000916918
0.000183781
-0.000248498
-0.000194575
0.000210589
0.000766258
0.0013024
0.00173735
0.00206965
0.00231095
0.000288559
0.000346745
0.000354113
0.000356771
0.000325124
0.00033346
0.000265585
0.000204808
-5.11016e-05
-0.000428552
-0.00130267
-0.00214208
-0.00256721
-0.00247497
-0.00197527
-0.0013426
-0.00075376
-0.000313452
-6.5675e-06
0.00018517
0.00158076
0.00166956
0.00170958
0.00174631
0.00170948
0.00167968
0.00156378
0.0014438
0.00114824
0.000727234
-0.00019869
-0.000965357
-0.0011922
-0.000851202
-0.000263655
0.000287936
0.000749445
0.00106969
0.00130494
0.00146828
0.00036863
0.000390331
0.000380337
0.00038403
0.000368617
0.000384365
0.000335185
0.000288159
7.05386e-05
-0.000312974
-0.00126711
-0.00205273
-0.00219131
-0.00176075
-0.00110393
-0.000574383
-0.000164751
8.0796e-05
0.000241826
0.000328327
0.000964817
0.00101771
0.00103803
0.0010551
0.00102321
0.000997377
0.000908602
0.000813499
0.000584056
0.000208191
-0.00067349
-0.00128735
-0.00119571
-0.000743193
-0.000181082
0.000203587
0.000501017
0.00067511
0.000810367
0.000899465
0.000328041
0.000340023
0.000331093
0.000339345
0.000327759
0.000341064
0.000305611
0.000282494
0.000132454
-0.000135795
-0.000945228
-0.00156399
-0.00139187
-0.000959654
-0.000459786
-0.000160935
6.92374e-05
0.000182591
0.00026766
0.000307674
0.000585078
0.000613875
0.000621592
0.000628918
0.000602712
0.000583268
0.000519796
0.000459742
0.000312388
8.62069e-05
-0.00057566
-0.000908629
-0.000692706
-0.000323565
3.22603e-05
0.000211323
0.000363295
0.000434482
0.000506239
0.000549282
0.000265214
0.000275624
0.000271557
0.000281097
0.000271659
0.000285195
0.00026297
0.000278949
0.000206018
0.000170894
-0.000373661
-0.000791396
-0.00062013
-0.000392073
-0.000119135
2.49782e-07
0.000123342
0.000172219
0.000225849
0.000248881
0.000363379
0.000379012
0.000380447
0.000383879
0.000362129
0.000348486
0.000302687
0.00027348
0.000197936
0.000146265
-0.000189912
-0.000321819
-0.000184919
-2.64362e-05
0.000136473
0.000181562
0.000255931
0.000279137
0.000321492
0.000342467
0.000207351
0.000217385
0.000216878
0.000225844
0.000218342
0.000231802
0.000219848
0.000261587
0.000253655
0.00042325
0.000204984
-0.000227844
-0.00019388
-0.000162001
-3.68104e-05
1.08001e-05
9.78274e-05
0.000128679
0.000173102
0.000191334
0.000237604
0.000246703
0.000245701
0.000247316
0.000229234
0.000218774
0.000182658
0.000166261
0.000120362
0.000187748
0.00027266
-3.08189e-05
-4.12175e-05
-2.51942e-05
7.09764e-05
9.1484e-05
0.000157433
0.000175239
0.00020987
0.000223176
0.000162295
0.000170904
0.000171833
0.000178943
0.000172716
0.000182377
0.000173269
0.000199625
0.00017961
0.000239008
0.000132087
-8.80906e-05
-6.90817e-05
-9.18826e-05
-6.3795e-06
9.10808e-06
7.43908e-05
9.58159e-05
0.000132925
0.000147676
0.00016762
0.00017289
0.000171214
0.000171833
0.000157226
0.000148536
0.00012056
0.000104641
7.35534e-05
7.39675e-05
9.73543e-05
-5.62729e-06
3.0701e-05
2.03403e-05
7.88424e-05
7.72549e-05
0.000119828
0.000125756
0.000150172
0.000157572
0.000130335
0.00013661
0.000137639
0.00014246
0.000136967
0.000142524
0.000135681
0.000147821
0.000134312
0.000142347
8.55855e-05
-3.38007e-05
-1.73107e-05
-4.70951e-05
1.14497e-05
1.64931e-05
6.47935e-05
7.86491e-05
0.000107533
0.000118237
0.000128188
0.000131052
0.000129488
0.00012946
0.000118013
0.000110896
8.99846e-05
7.50542e-05
5.27844e-05
3.84852e-05
4.83119e-05
9.58141e-06
5.01698e-05
3.66641e-05
7.81492e-05
6.98162e-05
9.88842e-05
9.95716e-05
0.000116965
0.000120892
0.000108927
0.000112656
0.000113354
0.000116068
0.000110786
0.00011323
0.00010761
0.000111038
0.00010341
9.59739e-05
6.81461e-05
-4.55922e-06
8.10629e-06
-1.78219e-05
2.38592e-05
2.52136e-05
6.10985e-05
7.0306e-05
9.22029e-05
9.92644e-05
0.000105418
0.000106524
0.000105468
0.000104963
9.60909e-05
9.05967e-05
7.54659e-05
6.24354e-05
4.79875e-05
3.1685e-05
3.87785e-05
2.03301e-05
5.54016e-05
4.27995e-05
7.3615e-05
6.49252e-05
8.5788e-05
8.50649e-05
9.78528e-05
9.98122e-05
9.52559e-05
9.64904e-05
9.70639e-05
9.79907e-05
9.28296e-05
9.31683e-05
8.81312e-05
8.63753e-05
8.31841e-05
7.07863e-05
5.99831e-05
1.25731e-05
2.46314e-05
4.3591e-06
3.5025e-05
3.48812e-05
6.10377e-05
6.73285e-05
8.34425e-05
8.75582e-05
9.22774e-05
9.15585e-05
9.12921e-05
9.02321e-05
8.30142e-05
7.89554e-05
6.89891e-05
5.72232e-05
4.97822e-05
3.3898e-05
4.14727e-05
2.79675e-05
5.63628e-05
4.46112e-05
6.87007e-05
6.20101e-05
7.73151e-05
7.70492e-05
8.66461e-05
8.71556e-05
8.69115e-05
8.56968e-05
8.66788e-05
8.62391e-05
8.09569e-05
8.02998e-05
7.57108e-05
7.04996e-05
7.08351e-05
5.68285e-05
5.61391e-05
2.3677e-05
3.70311e-05
2.12947e-05
4.45961e-05
4.41221e-05
6.24285e-05
6.71724e-05
7.87048e-05
8.03403e-05
8.46751e-05
8.19925e-05
8.28251e-05
8.09559e-05
7.47681e-05
7.24023e-05
6.53927e-05
5.46856e-05
5.36583e-05
3.7072e-05
4.72882e-05
3.2732e-05
5.65782e-05
4.56501e-05
6.47495e-05
6.07628e-05
7.19164e-05
7.29412e-05
7.99319e-05
7.92989e-05
8.17701e-05
7.85663e-05
8.05773e-05
7.85132e-05
7.34797e-05
7.26062e-05
6.88144e-05
6.06756e-05
6.43274e-05
4.90118e-05
5.5691e-05
3.12662e-05
4.65534e-05
3.29203e-05
5.19111e-05
5.16351e-05
6.4051e-05
6.83984e-05
7.59052e-05
7.59725e-05
8.0528e-05
7.50172e-05
7.79134e-05
7.51192e-05
6.90414e-05
6.81932e-05
6.32428e-05
5.24684e-05
5.69436e-05
3.91368e-05
5.25325e-05
3.5824e-05
5.75634e-05
4.63509e-05
6.26214e-05
6.1057e-05
6.81111e-05
7.12507e-05
7.60427e-05
7.40815e-05
7.9599e-05
7.33207e-05
7.73293e-05
7.35241e-05
6.7968e-05
6.89967e-05
6.47479e-05
5.44675e-05
6.30001e-05
4.39824e-05
5.79778e-05
3.50545e-05
5.36996e-05
4.07365e-05
5.65244e-05
5.77853e-05
6.48636e-05
7.01774e-05
7.41412e-05
7.24418e-05
7.77836e-05
6.97422e-05
7.54302e-05
7.07554e-05
6.48379e-05
6.59193e-05
6.21227e-05
4.918e-05
5.98409e-05
3.88768e-05
5.71681e-05
3.69084e-05
5.96538e-05
4.61295e-05
6.1375e-05
6.18561e-05
6.54612e-05
7.11172e-05
7.29996e-05
7.04066e-05
7.90261e-05
6.7952e-05
7.60854e-05
7.10071e-05
6.34314e-05
6.69025e-05
6.28263e-05
4.9769e-05
6.39407e-05
4.03257e-05
6.13157e-05
3.65674e-05
5.91791e-05
4.45468e-05
5.97802e-05
6.25208e-05
6.36786e-05
7.21718e-05
7.35692e-05
6.92088e-05
7.69561e-05
6.43576e-05
7.44327e-05
6.77749e-05
6.00242e-05
6.55893e-05
6.09884e-05
4.50163e-05
6.33371e-05
3.55705e-05
6.19908e-05
3.50644e-05
6.1813e-05
4.49903e-05
5.99346e-05
6.34834e-05
6.22792e-05
7.17725e-05
7.06255e-05
6.60062e-05
7.89546e-05
6.32888e-05
7.64271e-05
6.82308e-05
5.89752e-05
6.71748e-05
6.15346e-05
4.42663e-05
6.66023e-05
3.57771e-05
6.5638e-05
3.5172e-05
6.40987e-05
4.48322e-05
6.07996e-05
6.5812e-05
6.18745e-05
7.44185e-05
7.1812e-05
6.569e-05
7.7618e-05
5.71816e-05
7.49945e-05
6.58581e-05
5.30766e-05
6.69966e-05
5.97912e-05
3.85446e-05
6.70189e-05
2.9686e-05
6.66151e-05
3.05639e-05
6.45919e-05
4.13663e-05
5.77964e-05
6.57849e-05
5.68832e-05
7.30769e-05
6.86156e-05
5.96755e-05
7.95987e-05
5.68143e-05
7.82563e-05
6.57131e-05
5.28474e-05
6.94836e-05
6.00236e-05
3.67378e-05
7.12306e-05
2.82891e-05
7.12751e-05
2.96726e-05
6.86111e-05
4.12269e-05
6.01985e-05
6.83924e-05
5.73453e-05
7.71232e-05
6.93854e-05
6.05039e-05
7.84573e-05
4.79906e-05
7.78287e-05
6.25919e-05
4.36538e-05
7.06819e-05
5.80016e-05
2.79139e-05
7.22879e-05
1.93624e-05
7.23952e-05
2.15462e-05
6.81759e-05
3.36621e-05
5.44326e-05
6.74733e-05
4.90886e-05
7.5704e-05
6.45796e-05
5.12896e-05
8.15621e-05
4.72309e-05
8.19511e-05
6.2451e-05
4.24793e-05
7.41899e-05
5.76491e-05
2.58738e-05
7.68575e-05
1.72879e-05
7.72804e-05
2.00047e-05
7.27768e-05
3.25814e-05
5.77283e-05
7.12223e-05
4.89598e-05
8.05327e-05
6.54406e-05
5.14959e-05
8.1e-05
3.20468e-05
8.47091e-05
5.89798e-05
2.64991e-05
7.92677e-05
5.54732e-05
8.55292e-06
8.14649e-05
8.85308e-07
8.14728e-05
4.32771e-06
7.43288e-05
1.77697e-05
4.84752e-05
7.0922e-05
3.42012e-05
8.11888e-05
5.93146e-05
3.66793e-05
8.35972e-05
3.21401e-05
8.85602e-05
5.66767e-05
2.61632e-05
8.29981e-05
5.29923e-05
7.91901e-06
8.46552e-05
-3.14423e-07
8.46433e-05
3.4349e-06
7.7438e-05
1.69096e-05
5.24028e-05
7.30891e-05
3.44156e-05
8.54339e-05
5.79097e-05
3.74403e-05
8.72035e-05
4.28249e-06
0.000100613
5.05836e-05
-6.4854e-06
9.94585e-05
4.88984e-05
-2.7177e-05
9.78536e-05
-3.21416e-05
9.64681e-05
-2.72687e-05
8.53234e-05
-1.3032e-05
3.84522e-05
7.79102e-05
7.11678e-06
9.38434e-05
4.83389e-05
9.52776e-06
-0.0149241
-0.0142985
-0.0137842
-0.0134084
-0.013194
-0.0131771
-0.0133655
-0.0137369
-0.0142774
-0.0149444
-0.0156933
-0.0164452
-0.0171079
-0.0175774
-0.0177851
-0.0177391
-0.0174548
-0.0169601
-0.0163212
-0.0156179
0.00142416
0.00153306
0.00150353
0.00138983
0.00124225
0.00111835
0.000941895
0.000709617
0.000399413
2.72778e-05
-0.000412386
-0.000867387
-0.00124718
-0.00145622
-0.00140402
-0.00104855
-0.000502135
0.000115547
0.000693367
0.00114506
-0.00309955
-0.00274246
-0.00250199
-0.00236274
-0.00237235
-0.00251288
-0.00275709