/*--------------------------------*- C++ -*----------------------------------*\
| =========                 |                                                 |
| \\      /  F ield         | OpenFOAM: The Open Source CFD Toolbox           |
|  \\    /   O peration     | Version:  2.4.0                                 |
|   \\  /    A nd           | Web:      www.OpenFOAM.org                      |
|    \\/     M anipulation  |                                                 |
\*---------------------------------------------------------------------------*/
FoamFile
{
    version     2.0;
    format      ascii;
    class       volScalarField;
    location    "400";
    object      p;
}
// * * * * * * * * * * * * * * * * * * * * * * * * * * * * * * * * * * * * * //

dimensions      [0 2 -2 0 0 0 0];

internalField   nonuniform List<scalar> 
283312
(
-0.00626522
-0.00632368
-0.00656326
-0.00690391
-0.00725762
-0.0075552
-0.00778854
-0.00795235
-0.00807889
-0.00819157
-0.00831051
-0.0084223
-0.00849487
-0.00847249
-0.00832175
-0.00804973
-0.0076674
-0.0072116
-0.0067636
-0.00642169
0.00215168
0.00164827
0.00122047
0.000949546
0.000848606
0.000912657
0.00105441
0.00119444
0.00130454
0.00139219
0.00145971
0.00153879
0.00166737
0.00186808
0.00215401
0.00252425
0.00284096
0.00299392
0.00291922
0.00261531
-0.00230078
-0.00215089
-0.00192857
-0.00168922
-0.00149771
-0.00140157
-0.00138426
-0.00139183
-0.00144234
-0.00148561
-0.00151746
-0.00149715
-0.00142565
-0.00132485
-0.00127657
-0.00137999
-0.00161674
-0.00190763
-0.00216775
-0.00231061
0.00148278
0.00165443
0.00179749
0.00191185
0.00199458
0.00206294
0.00206942
0.00207529
0.0020414
0.0020513
0.00206775
0.00211502
0.00214511
0.00210586
0.00198227
0.00174516
0.0014981
0.00131615
0.00126171
0.00133494
-0.000743359
-0.000545788
-0.000429649
-0.000351935
-0.000349153
-0.000337003
-0.00034913
-0.000336132
-0.000366819
-0.000344828
-0.000355082
-0.000411182
-0.000585981
-0.000897614
-0.0013167
-0.00165267
-0.00174359
-0.00160472
-0.00132236
-0.00100832
0.00120394
0.00131303
0.00137059
0.00141597
0.00142956
0.00143675
0.0014021
0.00138875
0.00132398
0.00133287
0.00127574
0.00115103
0.0008777
0.000523491
0.000262108
0.00019232
0.000319875
0.000561203
0.000825127
0.00104773
-0.000149985
-0.000110681
-0.00010392
-9.82617e-05
-0.000109651
-8.46876e-05
-8.52244e-05
-5.68009e-05
-8.85713e-05
-6.47075e-05
-0.000181722
-0.000454165
-0.000865147
-0.00126862
-0.00139973
-0.00124787
-0.000936125
-0.000624043
-0.000382074
-0.000229247
0.000763272
0.000812134
0.000835509
0.000860294
0.000848517
0.000844836
0.000807211
0.000786719
0.000717707
0.000706893
0.000546897
0.000232173
-0.000172166
-0.00036152
-0.000308893
-7.7678e-05
0.00020645
0.000432915
0.00059493
0.000698324
-2.27505e-08
1.63313e-06
-9.31326e-06
-1.09693e-05
-1.24112e-05
9.49663e-06
1.13146e-05
3.11883e-05
3.3548e-06
6.52496e-06
-0.000188531
-0.000596196
-0.00100103
-0.00108415
-0.000869629
-0.000579
-0.000314583
-0.000150398
-5.43539e-05
-1.22251e-05
0.000441456
0.000465941
0.000476659
0.000487092
0.000474235
0.00046582
0.000435383
0.000413028
0.000359684
0.000342357
0.000161503
-0.00020978
-0.00046183
-0.000447714
-0.000215365
9.8054e-06
0.000194393
0.000299699
0.000370468
0.000412081
4.40941e-05
4.20405e-05
3.31437e-05
3.49887e-05
3.4231e-05
4.92709e-05
4.96082e-05
6.58769e-05
4.87076e-05
7.33272e-05
-0.000104011
-0.000534403
-0.000716158
-0.000633734
-0.000390284
-0.000205235
-6.72652e-05
-4.289e-06
3.26309e-05
4.32809e-05
0.000250936
0.00026265
0.000266425
0.000269549
0.00025837
0.000249597
0.000226004
0.000208385
0.000173012
0.000191959
5.5076e-05
-0.000227463
-0.000332021
-0.000225947
-4.53698e-05
6.88931e-05
0.000154565
0.000191006
0.000221178
0.000237099
5.511e-05
5.50613e-05
5.0561e-05
5.40011e-05
5.28026e-05
6.40581e-05
6.36845e-05
8.72184e-05
8.38321e-05
0.000190155
7.55536e-05
-0.000272047
-0.000356092
-0.000290474
-0.000144987
-6.32925e-05
4.66588e-06
2.8712e-05
4.87007e-05
5.32897e-05
0.000145521
0.000150678
0.000150862
0.000151147
0.000141364
0.00013357
0.000114422
0.000102239
8.16053e-05
0.00013892
9.80493e-05
-5.15444e-05
-0.000108678
-5.34535e-05
3.36358e-05
7.05771e-05
0.000108186
0.000117985
0.000132933
0.00013872
5.28954e-05
5.46048e-05
5.31187e-05
5.66684e-05
5.54573e-05
6.44351e-05
6.47199e-05
9.32409e-05
0.000105201
0.000280068
0.000266978
-5.07144e-05
-0.000137062
-0.000139613
-7.5118e-05
-3.47833e-05
1.11549e-05
2.6909e-05
4.40675e-05
4.89569e-05
8.90441e-05
9.12379e-05
9.00181e-05
8.92279e-05
8.08824e-05
7.40021e-05
5.76357e-05
4.70081e-05
2.89626e-05
8.60227e-05
0.00019587
3.70116e-05
-1.94852e-05
-1.94797e-05
2.14794e-05
3.48725e-05
6.33907e-05
7.01867e-05
8.19125e-05
8.4972e-05
4.63428e-05
4.85378e-05
4.84367e-05
5.12705e-05
5.0164e-05
5.6154e-05
5.59508e-05
7.23231e-05
6.84656e-05
0.000106967
6.64672e-05
-3.07952e-05
-4.01496e-05
-5.48891e-05
-2.09377e-05
-1.1952e-05
1.47296e-05
2.34683e-05
3.72315e-05
4.17916e-05
5.95029e-05
6.02472e-05
5.87409e-05
5.76464e-05
5.09212e-05
4.50479e-05
3.22537e-05
2.18373e-05
9.75634e-06
9.07486e-06
4.07676e-05
9.8199e-06
1.88717e-05
1.6521e-05
3.63396e-05
3.51305e-05
4.90779e-05
4.91912e-05
5.61988e-05
5.71072e-05
3.95593e-05
4.13831e-05
4.16675e-05
4.35191e-05
4.24155e-05
4.585e-05
4.57973e-05
5.38576e-05
5.14501e-05
5.81409e-05
3.35689e-05
-1.54769e-05
-1.68324e-05
-3.05367e-05
-8.38437e-06
-4.58086e-06
1.45613e-05
2.0628e-05
3.15925e-05
3.5348e-05
4.37739e-05
4.38724e-05
4.25789e-05
4.14862e-05
3.63414e-05
3.16161e-05
2.21265e-05
1.32147e-05
4.4161e-06
-2.4416e-06
1.15521e-05
6.41338e-06
2.27374e-05
2.05235e-05
3.41552e-05
3.02647e-05
3.88837e-05
3.74101e-05
4.20823e-05
4.2176e-05
3.41033e-05
3.52057e-05
3.54592e-05
3.64125e-05
3.51027e-05
3.67094e-05
3.64855e-05
3.97595e-05
3.90655e-05
3.78387e-05
2.53908e-05
-5.23103e-06
-6.20966e-06
-1.7152e-05
-1.95577e-06
4.22141e-07
1.46988e-05
1.9264e-05
2.78007e-05
3.052e-05
3.50492e-05
3.48259e-05
3.39323e-05
3.29556e-05
2.91441e-05
2.55911e-05
1.88238e-05
1.17192e-05
5.84165e-06
-9.1437e-07
6.80756e-06
6.97643e-06
2.18175e-05
1.97504e-05
2.98099e-05
2.60846e-05
3.20154e-05
3.05676e-05
3.39756e-05
3.38315e-05
3.02434e-05
3.05361e-05
3.0738e-05
3.0954e-05
2.9482e-05
2.98282e-05
2.9195e-05
2.96624e-05
3.0056e-05
2.61763e-05
2.10656e-05
7.89169e-07
1.06957e-06
-6.94624e-06
3.89602e-06
5.44165e-06
1.58363e-05
1.92255e-05
2.55913e-05
2.73327e-05
3.01394e-05
2.95118e-05
2.90711e-05
2.81494e-05
2.5204e-05
2.26102e-05
1.8404e-05
1.24994e-05
9.31121e-06
3.23843e-06
8.50368e-06
8.2349e-06
2.00069e-05
1.76097e-05
2.55583e-05
2.28911e-05
2.72387e-05
2.64376e-05
2.91142e-05
2.88026e-05
2.7727e-05
2.72003e-05
2.75145e-05
2.72542e-05
2.55522e-05
2.52101e-05
2.42454e-05
2.28794e-05
2.39376e-05
1.92618e-05
1.82244e-05
4.72807e-06
6.75389e-06
9.90158e-07
9.01203e-06
1.00721e-05
1.72632e-05
1.98363e-05
2.44513e-05
2.52646e-05
2.72859e-05
2.61659e-05
2.61893e-05
2.51825e-05
2.28027e-05
2.12053e-05
1.83581e-05
1.35222e-05
1.28538e-05
6.63065e-06
1.15833e-05
9.02137e-06
1.84064e-05
1.58813e-05
2.20711e-05
2.06783e-05
2.39721e-05
2.39763e-05
2.60703e-05
2.56146e-05
2.59822e-05
2.49939e-05
2.55792e-05
2.47107e-05
2.31228e-05
2.24078e-05
2.15327e-05
1.86849e-05
2.03017e-05
1.52355e-05
1.69653e-05
7.58076e-06
1.11383e-05
6.41092e-06
1.29311e-05
1.36515e-05
1.85827e-05
2.0691e-05
2.37079e-05
2.40411e-05
2.56819e-05
2.36296e-05
2.44598e-05
2.33667e-05
2.10902e-05
2.01377e-05
1.83261e-05
1.39559e-05
1.51994e-05
8.86977e-06
1.39824e-05
9.67124e-06
1.75665e-05
1.46426e-05
1.99055e-05
1.95005e-05
2.15929e-05
2.26042e-05
2.42735e-05
2.3469e-05
2.53541e-05
2.33706e-05
2.45174e-05
2.3061e-05
2.12428e-05
2.12613e-05
1.98704e-05
1.6237e-05
1.9252e-05
1.27306e-05
1.72043e-05
8.93322e-06
1.42953e-05
1.01905e-05
1.53458e-05
1.64808e-05
1.93788e-05
2.15386e-05
2.32029e-05
2.28745e-05
2.43511e-05
2.18359e-05
2.35254e-05
2.18113e-05
1.99131e-05
1.95163e-05
1.84033e-05
1.33876e-05
1.67253e-05
9.65139e-06
1.57983e-05
9.84773e-06
1.75841e-05
1.35215e-05
1.85177e-05
1.87832e-05
2.01202e-05
2.19996e-05
2.27475e-05
2.20905e-05
2.52443e-05
2.14796e-05
2.40905e-05
2.24902e-05
1.97636e-05
2.03875e-05
1.91942e-05
1.46821e-05
1.91756e-05
1.1355e-05
1.79619e-05
9.72758e-06
1.6565e-05
1.21753e-05
1.71574e-05
1.8536e-05
1.911e-05
2.23174e-05
2.33054e-05
2.18273e-05
2.38633e-05
1.99616e-05
2.29892e-05
2.07947e-05
1.83073e-05
1.95089e-05
1.8197e-05
1.23528e-05
1.82144e-05
8.84525e-06
1.75647e-05
8.98286e-06
1.77321e-05
1.26238e-05
1.73309e-05
1.87809e-05
1.86707e-05
2.17802e-05
2.16468e-05
2.03558e-05
2.50872e-05
2.02218e-05
2.41772e-05
2.15156e-05
1.85537e-05
2.04156e-05
1.88173e-05
1.2949e-05
1.98396e-05
1.00076e-05
1.92138e-05
9.62462e-06
1.855e-05
1.27562e-05
1.78822e-05
1.9757e-05
1.89101e-05
2.31172e-05
2.27017e-05
2.08894e-05
2.40704e-05
1.72671e-05
2.29568e-05
2.03831e-05
1.56997e-05
1.99691e-05
1.79273e-05
1.03498e-05
1.93968e-05
7.10603e-06
1.89732e-05
7.42709e-06
1.82892e-05
1.11271e-05
1.61225e-05
1.93858e-05
1.6408e-05
2.18542e-05
2.1009e-05
1.78042e-05
2.51526e-05
1.83457e-05
2.46821e-05
2.0752e-05
1.68917e-05
2.10958e-05
1.83953e-05
1.0703e-05
2.13696e-05
7.7239e-06
2.10982e-05
8.05469e-06
2.02295e-05
1.19557e-05
1.7976e-05
2.06235e-05
1.77085e-05
2.40063e-05
2.19795e-05
1.94754e-05
2.41568e-05
1.4027e-05
2.37946e-05
1.92374e-05
1.23567e-05
2.11415e-05
1.74386e-05
6.63418e-06
2.1107e-05
3.60076e-06
2.0815e-05
4.24642e-06
1.9292e-05
8.32005e-06
1.46171e-05
1.96871e-05
1.35649e-05
2.2547e-05
1.94875e-05
1.47189e-05
2.58205e-05
1.54953e-05
2.56587e-05
1.97814e-05
1.36914e-05
2.23988e-05
1.7692e-05
7.66518e-06
2.2952e-05
4.5855e-06
2.28195e-05
5.33869e-06
2.14788e-05
9.46689e-06
1.73873e-05
2.16364e-05
1.52213e-05
2.49639e-05
2.08099e-05
1.6625e-05
2.50906e-05
7.58542e-06
2.63975e-05
1.82545e-05
5.39496e-06
2.43573e-05
1.68456e-05
-1.23995e-06
2.4671e-05
-3.71747e-06
2.4326e-05
-2.65902e-06
2.17182e-05
1.89849e-06
1.20262e-05
2.10904e-05
7.46987e-06
2.4617e-05
1.78279e-05
8.76199e-06
2.62159e-05
1.03384e-05
2.75063e-05
1.76176e-05
8.20406e-06
2.50111e-05
1.59338e-05
1.70362e-06
2.51547e-05
-1.25734e-06
2.48615e-05
-1.92117e-07
2.26541e-05
4.18928e-06
1.55159e-05
2.183e-05
1.01621e-05
2.62366e-05
1.79922e-05
1.17814e-05
2.8287e-05
-6.76343e-06
3.40737e-05
1.44186e-05
-1.19657e-05
3.4023e-05
1.38324e-05
-1.99188e-05
3.23757e-05
-2.06655e-05
3.13073e-05
-1.89606e-05
2.70489e-05
-1.40724e-05
6.78714e-06
2.45791e-05
-6.67108e-06
3.09047e-05
1.29177e-05
-5.60766e-06
-0.0109782
-0.0105856
-0.0102796
-0.0100681
-0.0099515
-0.00993876
-0.0100593
-0.0102937
-0.0106361
-0.0110624
-0.0115504
-0.0120488
-0.0124948
-0.0128103
-0.0129442
-0.012907
-0.0127069
-0.0123594
-0.0119144
-0.0114349
0.00232779
0.00228206
0.00215095
0.00198947
0.00183542
0.00174542
0.00167633
0.00159116
0.00146903
0.00131467
0.0011126
0.000889459
0.000700221
0.00060574
0.000667596
0.000935444
0.00131218
0.001705
0.00203677
0.00225163
-0.00233517
-0.00209937
-0.0019135
-0.00177748
-0.00172784
-0.00178364
-0.00191119
-0.00206089
-0.00227872
-0.00253467
-0.00286607
-0.00321726
-0.00352036
-0.00369079
-0.00372784
-0.00365305
-0.00346508
-0.00318721
-0.00288564
-0.00259622
0.00290826
0.00297186
0.00299623
0.00301378
0.00301878
0.00301876
0.00295212
0.00287404
0.00270745
0.00251462
0.00218683
0.00181772
0.00151083
0.00137993
0.00150703
0.00176636
0.00210485
0.00241041
0.00264507
0.00280833
-0.000458581
-0.000310736
-0.000237699
-0.000190578
-0.000227967
-0.000243635
-0.000304922
-0.000351722
-0.000507076
-0.000703161
-0.00112367
-0.00162947
-0.00205771
-0.00228658
-0.00231059
-0.00212843
-0.00177103
-0.00136286
-0.000981597
-0.000674239
0.00202232
0.00212405
0.00217472
0.00222055
0.00221689
0.00220681
0.00212399
0.00205244
0.00185695
0.00163297
0.0011195
0.000583148
0.000207856
0.000147389
0.000362084
0.000719611
0.00109769
0.0014253
0.00168919
0.00188741
6.00722e-05
0.000104215
0.000108437
0.000112747
9.04478e-05
0.000112486
8.21281e-05
7.48697e-05
-7.19332e-05
-0.000282328
-0.000890047
-0.0015373
-0.00193946
-0.00199374
-0.00169751
-0.0012446
-0.000786898
-0.000430249
-0.000177903
-2.16016e-05
0.00125446
0.00132465
0.00135743
0.00139148
0.00136702
0.00135316
0.00127615
0.00121022
0.00102216
0.000770561
0.000115896
-0.000487851
-0.000753966
-0.000569833
-0.000171813
0.000239969
0.0006006
0.000854364
0.00104013
0.0011674
0.000173188
0.000183119
0.00017077
0.000171944
0.000164479
0.000188744
0.000168852
0.00016402
4.08085e-05
-0.000181275
-0.000862913
-0.00150185
-0.00171559
-0.00145341
-0.000967212
-0.000551976
-0.000224758
-3.16644e-05
9.00417e-05
0.000149947
0.000742542
0.000782718
0.000799033
0.000814629
0.000791862
0.000776596
0.000716724
0.000661634
0.000517515
0.000289858
-0.000336805
-0.000845786
-0.000854414
-0.000555371
-0.000132219
0.000166455
0.000398009
0.000529706
0.000630059
0.000694604
0.000178597
0.00018242
0.000172212
0.00017796
0.000172607
0.000190918
0.000176265
0.000180226
9.84478e-05
-4.71997e-05
-0.000623012
-0.00115569
-0.00109611
-0.000793398
-0.000406937
-0.000171896
6.20699e-06
8.84246e-05
0.000146868
0.000169786
0.000435991
0.000456953
0.000462993
0.000469156
0.000450023
0.000437025
0.000393176
0.000357136
0.000265486
0.000139028
-0.000326134
-0.000619225
-0.000505968
-0.000239055
3.34602e-05
0.000170505
0.000283516
0.00033237
0.000382178
0.000410916
0.000155575
0.000160244
0.000155349
0.000162694
0.000157991
0.000173446
0.000164202
0.000190605
0.000155932
0.000180697
-0.000199596
-0.000574811
-0.000488638
-0.000327644
-0.00011742
-2.52387e-05
6.66288e-05
9.91969e-05
0.000134943
0.000147317
0.00026195
0.000272603
0.000273443
0.000275809
0.000259584
0.000249482
0.000216479
0.000197772
0.000150701
0.000142079
-8.04961e-05
-0.000197851
-0.000125317
-1.02029e-05
0.00011177
0.000143261
0.000194942
0.000207565
0.000235458
0.000248039
0.000127329
0.00013312
0.000131975
0.000139044
0.000135152
0.000148641
0.000144252
0.000185202
0.000191528
0.000365421
0.000228846
-0.000146384
-0.000154535
-0.000139824
-4.83302e-05
-1.05204e-05
5.45264e-05
7.57296e-05
0.000106549
0.000117487
0.000165979
0.000171696
0.000170523
0.000171225
0.000157589
0.000149193
0.000122184
0.000109657
7.79674e-05
0.000144979
0.000251604
8.30653e-06
-2.30004e-05
-1.51517e-05
5.4167e-05
6.76497e-05
0.000114828
0.000125658
0.000148968
0.00015667
0.000102536
0.000108036
0.000108521
0.000114155
0.000110851
0.00012024
0.000116448
0.000141225
0.000130379
0.000185664
0.000108635
-6.10732e-05
-5.5007e-05
-7.63184e-05
-1.49097e-05
-4.44849e-06
4.26314e-05
5.71862e-05
8.32801e-05
9.27737e-05
0.00011419
0.000117166
0.000115501
0.000115441
0.000104451
9.72623e-05
7.61849e-05
6.31752e-05
4.13562e-05
4.32534e-05
7.52797e-05
4.56013e-06
2.90726e-05
2.14809e-05
6.15136e-05
5.81432e-05
8.66351e-05
8.85154e-05
0.000104285
0.000107975
8.37122e-05
8.78757e-05
8.86707e-05
9.24982e-05
8.94902e-05
9.50292e-05
9.22048e-05
0.000104209
9.67344e-05
0.000106152
6.33995e-05
-2.57733e-05
-1.74729e-05
-4.1379e-05
2.53551e-07
3.48986e-06
3.81111e-05
4.77021e-05
6.81774e-05
7.5325e-05
8.58134e-05
8.72289e-05
8.57572e-05
8.53185e-05
7.68178e-05
7.0929e-05
5.52284e-05
4.31887e-05
2.73357e-05
1.70877e-05
3.10624e-05
8.90535e-06
3.95472e-05
3.09166e-05
5.91316e-05
5.14425e-05
7.02763e-05
6.88606e-05
7.98226e-05
8.14025e-05
7.05631e-05
7.30532e-05
7.36709e-05
7.58486e-05
7.27691e-05
7.54835e-05
7.30321e-05
7.74689e-05
7.37094e-05
7.00219e-05
4.88247e-05
-5.59623e-06
4.96711e-07
-1.95407e-05
9.75941e-06
1.08616e-05
3.66263e-05
4.326e-05
5.88982e-05
6.37175e-05
6.97603e-05
7.01363e-05
6.91645e-05
6.85211e-05
6.20813e-05
5.75943e-05
4.63336e-05
3.61139e-05
2.57409e-05
1.41701e-05
2.27121e-05
1.40051e-05
4.06958e-05
3.28514e-05
5.37653e-05
4.63881e-05
5.97033e-05
5.78177e-05
6.58198e-05
6.63795e-05
6.19538e-05
6.27354e-05
6.32571e-05
6.40568e-05
6.08996e-05
6.16826e-05
5.9188e-05
5.91575e-05
5.81481e-05
5.01453e-05
4.17937e-05
6.17933e-06
1.24148e-05
-2.86667e-06
1.84574e-05
1.865e-05
3.74061e-05
4.2071e-05
5.36075e-05
5.6459e-05
6.06339e-05
5.98845e-05
5.95804e-05
5.86695e-05
5.35546e-05
5.02821e-05
4.30921e-05
3.40948e-05
2.87322e-05
1.76102e-05
2.47493e-05
1.81891e-05
3.95026e-05
3.2001e-05
4.83836e-05
4.28763e-05
5.26068e-05
5.15025e-05
5.75613e-05
5.73848e-05
5.66206e-05
5.57092e-05
5.64925e-05
5.62949e-05
5.29062e-05
5.26883e-05
5.01499e-05
4.71714e-05
4.8234e-05
3.88296e-05
3.79158e-05
1.37752e-05
2.15547e-05
1.00036e-05
2.60423e-05
2.59773e-05
3.90119e-05
4.25432e-05
5.08105e-05
5.1936e-05
5.53751e-05
5.33813e-05
5.38959e-05
5.25134e-05
4.82415e-05
4.63538e-05
4.14137e-05
3.35195e-05
3.2795e-05
2.11298e-05
2.92966e-05
2.0748e-05
3.82393e-05
3.11354e-05
4.40229e-05
4.07765e-05
4.79137e-05
4.80504e-05
5.25314e-05
5.17748e-05
5.32194e-05
5.10719e-05
5.25109e-05
5.11137e-05
4.79052e-05
4.72775e-05
4.51411e-05
3.97338e-05
4.27002e-05
3.23492e-05
3.67154e-05
1.90318e-05
2.86227e-05
1.88192e-05
3.18693e-05
3.18049e-05
4.0637e-05
4.37672e-05
4.91159e-05
4.9236e-05
5.25032e-05
4.85659e-05
5.05813e-05
4.86738e-05
4.45142e-05
4.37158e-05
4.0395e-05
3.2717e-05
3.58105e-05
2.34289e-05
3.31865e-05
2.24629e-05
3.79252e-05
3.04814e-05
4.14413e-05
4.00784e-05
4.45375e-05
4.641e-05
4.95983e-05
4.80339e-05
5.19e-05
4.765e-05
5.03944e-05
4.77585e-05
4.41496e-05
4.48527e-05
4.21269e-05
3.51525e-05
4.13126e-05
2.82047e-05
3.78156e-05
2.15442e-05
3.38633e-05
2.48278e-05
3.5497e-05
3.65089e-05
4.15299e-05
4.52131e-05
4.80199e-05
4.69196e-05
5.0429e-05
4.49988e-05
4.88898e-05
4.56604e-05
4.18267e-05
4.22573e-05
3.99154e-05
3.07576e-05
3.812e-05
2.37122e-05
3.64453e-05
2.29532e-05
3.87596e-05
2.95075e-05
3.98349e-05
3.99266e-05
4.22999e-05
4.59833e-05
4.72114e-05
4.54921e-05
5.16418e-05
4.39564e-05
4.96081e-05
4.62508e-05
4.10902e-05
4.33031e-05
4.07644e-05
3.18813e-05
4.16445e-05
2.54787e-05
3.97809e-05
2.26566e-05
3.77995e-05
2.78197e-05
3.81428e-05
4.00465e-05
4.07801e-05
4.67006e-05
4.78639e-05
4.47909e-05
4.97941e-05
4.12991e-05
4.81335e-05
4.36307e-05
3.85494e-05
4.21115e-05
3.92301e-05
2.80948e-05
4.07024e-05
2.15428e-05
3.97972e-05
2.14109e-05
3.97659e-05
2.82891e-05
3.83102e-05
4.06526e-05
3.98338e-05
4.61733e-05
4.54043e-05
4.23527e-05
5.15759e-05
4.09945e-05
4.98825e-05
4.4334e-05
3.82348e-05
4.3465e-05
3.98854e-05
2.81295e-05
4.32971e-05
2.23772e-05
4.25712e-05
2.18434e-05
4.13414e-05
2.82648e-05
3.90581e-05
4.23752e-05
3.97939e-05
4.83114e-05
4.66698e-05
4.25851e-05
5.03157e-05
3.61933e-05
4.84349e-05
4.24823e-05
3.35901e-05
4.31036e-05
3.84643e-05
2.37142e-05
4.31966e-05
1.75641e-05
4.28581e-05
1.81894e-05
4.13876e-05
2.55362e-05
3.64838e-05
4.21178e-05
3.5793e-05
4.68693e-05
4.40642e-05
3.77503e-05
5.19927e-05
3.6748e-05
5.1134e-05
4.26594e-05
3.42795e-05
4.50295e-05
3.88666e-05
2.30898e-05
4.64839e-05
1.72797e-05
4.64458e-05
1.81429e-05
4.45478e-05
2.59861e-05
3.88358e-05
4.41528e-05
3.68618e-05
5.02095e-05
4.50696e-05
3.92667e-05
5.08492e-05
2.97415e-05
5.03915e-05
4.01874e-05
2.69511e-05
4.56615e-05
3.72624e-05
1.62259e-05
4.68345e-05
1.031e-05
4.68048e-05
1.17574e-05
4.3742e-05
1.99922e-05
3.39237e-05
4.31186e-05
3.02245e-05
4.86179e-05
4.11677e-05
3.1804e-05
5.34573e-05
3.03134e-05
5.36115e-05
4.04671e-05
2.72371e-05
4.81905e-05
3.72389e-05
1.58911e-05
5.02447e-05
9.90129e-06
5.04578e-05
1.16698e-05
4.7378e-05
2.01695e-05
3.73096e-05
4.61786e-05
3.1202e-05
5.25264e-05
4.24326e-05
3.31371e-05
5.27973e-05
1.78427e-05
5.55054e-05
3.77791e-05
1.41227e-05
5.19935e-05
3.55951e-05
1.72027e-06
5.3656e-05
-3.45967e-06
5.35202e-05
-1.14139e-06
4.83501e-05
8.06773e-06
2.9441e-05
4.57272e-05
1.90306e-05
5.27068e-05
3.7543e-05
2.08978e-05
5.48558e-05
1.94945e-05
5.81902e-05
3.62141e-05
1.55914e-05
5.43493e-05
3.37611e-05
3.11015e-06
5.56216e-05
-2.67123e-06
5.54929e-05
-1.92308e-07
5.05415e-05
8.93501e-06
3.35645e-05
4.729e-05
2.06986e-05
5.58961e-05
3.69201e-05
2.30713e-05
5.81338e-05
-5.06219e-06
6.85065e-05
3.11158e-05
-1.32605e-05
6.84167e-05
3.03182e-05
-2.78938e-05
6.69272e-05
-3.07161e-05
6.5616e-05
-2.72627e-05
5.74223e-05
-1.7414e-05
2.1379e-05
5.15638e-05
-3.40122e-06
6.32292e-05
2.89492e-05
-1.65029e-06
-0.0135186
-0.0129694
-0.0125199
-0.012192
-0.0119999
-0.0119732
-0.0121281
-0.0124431
-0.0129073
-0.013485
-0.01414
-0.0148039
-0.0153955
-0.0158203
-0.0160143
-0.0159851
-0.0157446
-0.015314
-0.0147517
-0.0141305
0.00193731
0.00199428
0.00192797
0.00179347
0.00163606
0.00152074
0.00138454
0.00120967
0.000974878
0.000689948
0.00034379
-2.32573e-05
-0.000335228
-0.000508942
-0.000464175
-0.000151341
0.00032699
0.000861379
0.00135311
0.00172516
-0.00274425
-0.00243603
-0.00221929
-0.00208392
-0.00206957
-0.00217683
-0.0023735
-0.00261314
-0.00294755
-0.00334483
-0.00384446
-0.00436678
-0.00480926
-0.00504819
-0.00507654
-0.00489487
-0.00453322
-0.00405645
-0.00356618
-0.00312014
0.00337967
0.00345737
0.00347613
0.00347904
0.00345653
0.00341257
0.00328695
0.00313157
0.00285336
0.00251726
0.00200264
0.0014496
0.0010222
0.000885753
0.001135
0.00158073
0.00212848
0.00261809
0.00298892
0.00323744
-0.000285373
-0.00012613
-5.48632e-05
-1.83509e-05
-7.90385e-05
-0.000120013
-0.000229689
-0.000343094
-0.000609848
-0.000960408
-0.00160039
-0.00231359
-0.00284305
-0.00304682
-0.00291526
-0.00251716
-0.00195165
-0.00138251
-0.000896434
-0.00052967
0.00247531
0.00259469
0.00265089
0.00269767
0.00267489
0.00264153
0.00251018
0.00237327
0.00206249
0.00167472
0.000917688
0.000183531
-0.000248968
-0.000194398
0.000212096
0.000768739
0.00130543
0.00174054
0.00207282
0.00231399
0.000289899
0.000347867
0.000355039
0.000357506
0.000325745
0.00033401
0.000266084
0.000205272
-5.08249e-05
-0.000428666
-0.00130425
-0.00214589
-0.00257179
-0.00247858
-0.0019771
-0.00134277
-0.000752856
-0.000312032
-4.99359e-06
0.000186675
0.0015829
0.0016716
0.00171153
0.00174816
0.00171123
0.00168137
0.00156538
0.00144534
0.00114954
0.000728071
-0.000199559
-0.000968536
-0.00119695
-0.000855021
-0.000265302
0.000288275
0.000750987
0.00107176
0.00130717
0.00147049
0.000369765
0.000391315
0.000381192
0.000384774
0.000369304
0.00038504
0.000335849
0.000288838
7.10723e-05
-0.00031277
-0.00126822
-0.00205578
-0.00219592
-0.00176475
-0.00110592
-0.000574665
-0.000163989
8.19957e-05
0.000243144
0.000329584
0.000966166
0.00101902
0.0010393
0.00105631
0.00102437
0.0009985
0.000909664
0.000814526
0.000584893
0.000208728
-0.000674031
-0.00128931
-0.00119848
-0.00074563
-0.000182183
0.000203638
0.000501833
0.000676287
0.0008117
0.000900826
0.000328828
0.000340728
0.000331727
0.000339918
0.000328303
0.000341606
0.000306146
0.000283051
0.000132922
-0.000135485
-0.00094569
-0.00156551
-0.00139395
-0.00096139
-0.000460558
-0.000160913
6.97877e-05
0.000183376
0.000268529
0.000308519
0.00058589
0.000614674
0.000622377
0.000629674
0.000603437
0.000583974
0.000520457
0.000460395
0.00031292
8.66393e-05
-0.000575794
-0.000909478
-0.000693829
-0.000324509
3.18974e-05
0.000211445
0.000363776
0.000435149
0.000507008
0.000550082
0.000265736
0.000276104
0.000272001
0.000281505
0.00027205
0.000285578
0.000263345
0.000279336
0.000206366
0.000171209
-0.000373772
-0.000791939
-0.000620859
-0.000392639
-0.000119306
3.95304e-07
0.000123725
0.000172713
0.000226397
0.000249424
0.00036387
0.000379498
0.000380929
0.000384344
0.000362577
0.000348922
0.000303088
0.000273881
0.000198255
0.00014659
-0.000189854
-0.000322099
-0.00018529
-2.67163e-05
0.000136428
0.000181704
0.000256232
0.000279527
0.000321944
0.000342943
0.000207697
0.00021771
0.000217185
0.000226128
0.000218614
0.000232062
0.000220097
0.000261832
0.000253877
0.000423461
0.000205026
-0.000227879
-0.000193977
-0.000162069
-3.6755e-05
1.09652e-05
9.80931e-05
0.000128995
0.000173451
0.000191685
0.000237908
0.000247006
0.000246003
0.000247607
0.000229515
0.000219043
0.000182899
0.000166494
0.000120526
0.000187906
0.00027269
-3.08615e-05
-4.12569e-05
-2.51958e-05
7.10413e-05
9.16086e-05
0.000157627
0.000175476
0.000210145
0.000223467
0.000162527
0.000171125
0.000172046
0.000179141
0.000172905
0.000182553
0.000173433
0.000199775
0.000179735
0.000239088
0.000132101
-8.80856e-05
-6.90993e-05
-9.1875e-05
-6.30886e-06
9.22439e-06
7.45629e-05
9.6017e-05
0.000133151
0.000147906
0.000167816
0.000173084
0.000171409
0.00017202
0.000157406
0.000148704
0.000120709
0.000104777
7.36448e-05
7.40374e-05
9.73708e-05
-5.64523e-06
3.06869e-05
2.0344e-05
7.88862e-05
7.73306e-05
0.000119948
0.000125903
0.000150346
0.000157757
0.000130494
0.000136762
0.000137788
0.000142598
0.000137099
0.000142643
0.00013579
0.000147917
0.000134389
0.000142399
8.56001e-05
-3.37956e-05
-1.73124e-05
-4.70822e-05
1.15005e-05
1.65701e-05
6.49062e-05
7.878e-05
0.000107683
0.00011839
0.00012832
0.000131182
0.000129619
0.000129583
0.000118132
0.000111005
9.00804e-05
7.5135e-05
5.28401e-05
3.85176e-05
4.83236e-05
9.57274e-06
5.01662e-05
3.66682e-05
7.81798e-05
6.9865e-05
9.8963e-05
9.96674e-05
0.000117081
0.000121015
0.000109037
0.000112762
0.000113459
0.000116165
0.000110879
0.000113312
0.000107685
0.000111099
0.00010346
9.60084e-05
6.81605e-05
-4.55679e-06
8.11018e-06
-1.78114e-05
2.38955e-05
2.52651e-05
6.11746e-05
7.03937e-05
9.2305e-05
9.93697e-05
0.00010551
0.000106614
0.000105559
0.000105047
9.61728e-05
9.06682e-05
7.55303e-05
6.24851e-05
4.80244e-05
3.17014e-05
3.87876e-05
2.03258e-05
5.54038e-05
4.28039e-05
7.36387e-05
6.49593e-05
8.58432e-05
8.5131e-05
9.79334e-05
9.98975e-05
9.53346e-05
9.65659e-05
9.71398e-05
9.80598e-05
9.28961e-05
9.32247e-05
8.81834e-05
8.64147e-05
8.3218e-05
7.08068e-05
5.99958e-05
1.25736e-05
2.46374e-05
4.36658e-06
3.50517e-05
3.49166e-05
6.10909e-05
6.73891e-05
8.35143e-05
8.76323e-05
9.23437e-05
9.16225e-05
9.13573e-05
9.02916e-05
8.3072e-05
7.90037e-05
6.90341e-05
5.72544e-05
4.98087e-05
3.39068e-05
4.14811e-05
2.79647e-05
5.63679e-05
4.46152e-05
6.87201e-05
6.20354e-05
7.7356e-05
7.70969e-05
8.67045e-05
8.72168e-05
8.6969e-05
8.57516e-05
8.67343e-05
8.6289e-05
8.10051e-05
8.03391e-05
7.57483e-05
7.05244e-05
7.08594e-05
5.68391e-05
5.61502e-05
2.36761e-05
3.7038e-05
2.12999e-05
4.46167e-05
4.41473e-05
6.24673e-05
6.72158e-05
7.8757e-05
8.03938e-05
8.47244e-05
8.20393e-05
8.28731e-05
8.0999e-05
7.48098e-05
7.24358e-05
6.54254e-05
5.47049e-05
5.36788e-05
3.70762e-05
4.72968e-05
3.27291e-05
5.65848e-05
4.56537e-05
6.47661e-05
6.07822e-05
7.19479e-05
7.29768e-05
7.99758e-05
7.93441e-05
8.18133e-05
7.86069e-05
8.06188e-05
7.85499e-05
7.3515e-05
7.26338e-05
6.88422e-05
6.06904e-05
6.43461e-05
4.90157e-05
5.5701e-05
3.12638e-05
4.65609e-05
3.29242e-05
5.19278e-05
5.16538e-05
6.40805e-05
6.84306e-05
7.59445e-05
7.60123e-05
8.05657e-05
7.50523e-05
7.79497e-05
7.51513e-05
6.90721e-05
6.8217e-05
6.32675e-05
5.24797e-05
5.69606e-05
3.91373e-05
5.25416e-05
3.58204e-05
5.75709e-05
4.63539e-05
6.2636e-05
6.10724e-05
6.81363e-05
7.12781e-05
7.60767e-05
7.41158e-05
7.96324e-05
7.33513e-05
7.7361e-05
7.35518e-05
6.79941e-05
6.90165e-05
6.47692e-05
5.44752e-05
6.30157e-05
4.39815e-05
5.79876e-05
3.50508e-05
5.37077e-05
4.07389e-05
5.65387e-05
5.77997e-05
6.4887e-05
7.02021e-05
7.41718e-05
7.24721e-05
7.78132e-05
6.97689e-05
7.54583e-05
7.07802e-05
6.48607e-05
6.59368e-05
6.21425e-05
4.91853e-05
5.98564e-05
3.88741e-05
5.71783e-05
3.69037e-05
5.96623e-05
4.61316e-05
6.13881e-05
6.18685e-05
6.54819e-05
7.11387e-05
7.30266e-05
7.04332e-05
7.90528e-05
6.79756e-05
7.61102e-05
7.10289e-05
6.34506e-05
6.69172e-05
6.28434e-05
4.97711e-05
6.39553e-05
4.0321e-05
6.13262e-05
3.65619e-05
5.9188e-05
4.45481e-05
5.9793e-05
6.25323e-05
6.36979e-05
7.21913e-05
7.35938e-05
6.92326e-05
7.698e-05
6.43784e-05
7.44552e-05
6.77948e-05
6.0041e-05
6.5603e-05
6.10052e-05
4.50167e-05
6.33529e-05
3.55645e-05
6.20028e-05
3.50584e-05
6.18228e-05
4.4991e-05
5.99467e-05
6.34935e-05
6.22966e-05
7.17896e-05
7.06475e-05
6.60272e-05
7.89765e-05
6.33074e-05
7.64473e-05
6.82483e-05
5.8989e-05
6.71866e-05
6.15492e-05
4.42635e-05
6.66176e-05
3.57687e-05
6.56503e-05
3.51645e-05
6.41088e-05
4.48322e-05
6.08114e-05
6.58214e-05
6.1891e-05
7.44343e-05
7.18324e-05
6.57092e-05
7.76379e-05
5.71979e-05
7.50131e-05
6.58749e-05
5.30883e-05
6.70087e-05
5.98067e-05
3.85401e-05
6.70366e-05
2.96763e-05
6.66299e-05
3.05557e-05
6.46035e-05
4.13654e-05
5.78077e-05
6.57932e-05
5.68981e-05
7.30906e-05
6.86337e-05
5.96922e-05
7.96173e-05
5.68291e-05
7.82734e-05
6.5728e-05
5.28564e-05
6.94944e-05
6.00369e-05
3.673e-05
7.12483e-05
2.82765e-05
7.12903e-05
2.96625e-05
6.86232e-05
4.1225e-05
6.02097e-05
6.84003e-05
5.73597e-05
7.71362e-05
6.94027e-05
6.05197e-05
7.84741e-05
4.8003e-05
7.7845e-05
6.26069e-05
4.36601e-05
7.06944e-05
5.8017e-05
2.79034e-05
7.23098e-05
1.93476e-05
7.24145e-05
2.15346e-05
6.81902e-05
3.36589e-05
5.44434e-05
6.748e-05
4.91014e-05
7.57148e-05
6.45946e-05
5.1303e-05
8.15785e-05
4.72425e-05
8.19667e-05
6.24646e-05
4.24834e-05
7.42019e-05
5.76624e-05
2.58602e-05
7.68799e-05
1.727e-05
7.73003e-05
1.99909e-05
7.27918e-05
3.2577e-05
5.77393e-05
7.1229e-05
4.89726e-05
8.05433e-05
6.54554e-05
5.1509e-05
8.10146e-05
3.20552e-05
8.47248e-05
5.89941e-05
2.64982e-05
7.9284e-05
5.54896e-05
8.53315e-06
8.14946e-05
8.62682e-07
8.14995e-05
4.31027e-06
7.43477e-05
1.77626e-05
4.84855e-05
7.09276e-05
3.42121e-05
8.11969e-05
5.93269e-05
3.66896e-05
8.36118e-05
3.21482e-05
8.85756e-05
5.66902e-05
2.61611e-05
8.30144e-05
5.30069e-05
7.89717e-06
8.46856e-05
-3.3949e-07
8.46705e-05
3.41558e-06
7.74576e-05
1.69015e-05
5.24137e-05
7.3095e-05
3.44266e-05
8.54421e-05
5.79224e-05
3.74508e-05
8.72163e-05
4.28553e-06
0.00010063
5.05981e-05
-6.49803e-06
9.94843e-05
4.89171e-05
-2.72132e-05
9.78981e-05
-3.21781e-05
9.65079e-05
-2.7297e-05
8.53507e-05
-1.30461e-05
3.84623e-05
7.79152e-05
7.12523e-06
9.38483e-05
4.83485e-05
9.535e-06
-0.0149372
-0.0143118
-0.0137978
-0.0134223
-0.0132081
-0.0131917
-0.0133805
-0.0137524
-0.0142935
-0.0149608
-0.01571
-0.0164619
-0.0171242
-0.0175931
-0.0178001
-0.0177536
-0.0174686
-0.0169734
-0.0163342
-0.0156308
0.00141953
0.00152841
0.00149905
0.00138554
0.00123824
0.00111456
0.000938167
0.000705956
0.000395808
2.37017e-05
-0.000415921
-0.000870834
-0.00125045
-0.00145932
-0.00140684
-0.00105108
-0.000504943
0.000112257
0.000689499
0.0011407
-0.00310176
-0.00274519
-0.00250526
-0.00236647
-0.00237653
-0.0025174
-0.00276186
-0.00306637
-0.00348474