/*--------------------------------*- C++ -*----------------------------------*\
| =========                 |                                                 |
| \\      /  F ield         | OpenFOAM: The Open Source CFD Toolbox           |
|  \\    /   O peration     | Version:  2.4.0                                 |
|   \\  /    A nd           | Web:      www.OpenFOAM.org                      |
|    \\/     M anipulation  |                                                 |
\*---------------------------------------------------------------------------*/
FoamFile
{
    version     2.0;
    format      ascii;
    class       volScalarField;
    location    "450";
    object      p;
}
// * * * * * * * * * * * * * * * * * * * * * * * * * * * * * * * * * * * * * //

dimensions      [0 2 -2 0 0 0 0];

internalField   nonuniform List<scalar> 
283312
(
-0.00626798
-0.0063263
-0.00656585
-0.00690663
-0.00726062
-0.00755867
-0.00779263
-0.00795708
-0.00808421
-0.00819735
-0.00831659
-0.00842845
-0.00850089
-0.00847815
-0.00832702
-0.00805459
-0.00767175
-0.00721542
-0.00676695
-0.00642469
0.00215246
0.0016487
0.00122058
0.000949384
0.000848247
0.000912182
0.00105386
0.00119387
0.001304
0.00139168
0.00145923
0.00153835
0.00166703
0.00186792
0.00215422
0.00252495
0.00284196
0.00299512
0.00292045
0.00261637
-0.00230065
-0.00215126
-0.00192933
-0.00169023
-0.00149888
-0.00140285
-0.00138558
-0.00139322
-0.0014438
-0.00148719
-0.00151913
-0.00149878
-0.001427
-0.00132562
-0.00127673
-0.00137956
-0.00161577
-0.00190646
-0.0021667
-0.00230997
0.00148349
0.00165499
0.00179803
0.00191239
0.00199517
0.00206354
0.00207005
0.00207593
0.00204203
0.00205189
0.00206827
0.00211563
0.00214617
0.0021076
0.0019847
0.00174795
0.00150074
0.00131829
0.00126324
0.00133597
-0.000743671
-0.000546085
-0.000429926
-0.000352219
-0.000349454
-0.000337323
-0.000349469
-0.000336501
-0.000367236
-0.000345334
-0.000355725
-0.000411727
-0.000585923
-0.000896643
-0.00131515
-0.00165116
-0.00174264
-0.0016044
-0.00132247
-0.0010086
0.00120453
0.00131366
0.00137124
0.00141663
0.00143022
0.00143741
0.00140276
0.00138942
0.00132464
0.00133347
0.00127612
0.00115138
0.000878553
0.000525008
0.0002639
0.000193779
0.000320845
0.000561835
0.000825644
0.00104827
-0.000149945
-0.000110648
-0.000103904
-9.82735e-05
-0.000109674
-8.47089e-05
-8.52343e-05
-5.67875e-05
-8.85654e-05
-6.47686e-05
-0.000182118
-0.000454911
-0.000865687
-0.00126889
-0.00139991
-0.00124811
-0.000936385
-0.000624228
-0.000382147
-0.000229242
0.00076373
0.000812598
0.000835976
0.000860756
0.000848967
0.000845283
0.000807652
0.000787167
0.000718125
0.000707234
0.000546843
0.000231678
-0.000172933
-0.000362089
-0.000309224
-7.77627e-05
0.000206567
0.000433187
0.000595308
0.000698757
9.87555e-08
1.7233e-06
-9.24872e-06
-1.09268e-05
-1.23718e-05
9.5483e-06
1.13818e-05
3.12867e-05
3.45218e-06
6.58783e-06
-0.000188764
-0.000596829
-0.00100204
-0.0010851
-0.000870231
-0.000579272
-0.000314619
-0.000150308
-5.4212e-05
-1.20828e-05
0.000441726
0.000466212
0.000476932
0.000487362
0.000474498
0.000466081
0.000435636
0.000413287
0.000359917
0.000342551
0.000161469
-0.000210139
-0.000462374
-0.000448199
-0.000215594
9.79019e-06
0.000194529
0.000299912
0.00037072
0.000412345
4.41871e-05
4.21122e-05
3.31994e-05
3.50324e-05
3.42749e-05
4.93239e-05
4.96716e-05
6.59624e-05
4.87941e-05
7.34054e-05
-0.000104095
-0.000534734
-0.000716611
-0.000634098
-0.000390443
-0.000205244
-6.71799e-05
-4.17014e-06
3.27559e-05
4.3392e-05
0.000251081
0.000262797
0.000266574
0.000269696
0.000258514
0.000249741
0.000226141
0.00020853
0.000173138
0.000192084
5.50902e-05
-0.00022762
-0.000332211
-0.000226089
-4.53977e-05
6.89407e-05
0.000154665
0.000191129
0.000221314
0.00023724
5.51709e-05
5.51105e-05
5.06018e-05
5.40355e-05
5.28373e-05
6.40969e-05
6.37291e-05
8.72751e-05
8.38935e-05
0.000190227
7.55347e-05
-0.000272159
-0.000356224
-0.000290559
-0.000144993
-6.32517e-05
4.73735e-06
2.87909e-05
4.87797e-05
5.33599e-05
0.000145598
0.000150756
0.000150941
0.000151225
0.000141441
0.000133647
0.000114493
0.000102317
8.1668e-05
0.000139002
9.8082e-05
-5.15907e-05
-0.000108725
-5.34731e-05
3.36562e-05
7.06188e-05
0.000108244
0.00011805
0.000133004
0.000138794
5.29343e-05
5.46374e-05
5.31473e-05
5.6693e-05
5.54819e-05
6.44602e-05
6.47474e-05
9.32728e-05
0.000105236
0.000280116
0.000267003
-5.06842e-05
-0.000137043
-0.000139597
-7.50855e-05
-3.47428e-05
1.12035e-05
2.69575e-05
4.41156e-05
4.90001e-05
8.90852e-05
9.12789e-05
9.00603e-05
8.92692e-05
8.09227e-05
7.40421e-05
5.76705e-05
4.70456e-05
2.8985e-05
8.60509e-05
0.000195884
3.70278e-05
-1.94537e-05
-1.94453e-05
2.15097e-05
3.49029e-05
6.34247e-05
7.02217e-05
8.19508e-05
8.5011e-05
4.63676e-05
4.8559e-05
4.84559e-05
5.1287e-05
5.01802e-05
5.61692e-05
5.59666e-05
7.23391e-05
6.84814e-05
0.000106975
6.64665e-05
-3.07873e-05
-4.01457e-05
-5.48791e-05
-2.09167e-05
-1.19295e-05
1.47573e-05
2.34965e-05
3.72604e-05
4.1818e-05
5.95253e-05
6.02692e-05
5.87634e-05
5.76679e-05
5.09422e-05
4.5068e-05
3.22704e-05
2.1854e-05
9.76412e-06
9.08287e-06
4.077e-05
9.82123e-06
1.88792e-05
1.65316e-05
3.63523e-05
3.5144e-05
4.90951e-05
4.92095e-05
5.62196e-05
5.71284e-05
3.95748e-05
4.13964e-05
4.16799e-05
4.35295e-05
4.24256e-05
4.58586e-05
4.58057e-05
5.38654e-05
5.14567e-05
5.81455e-05
3.35665e-05
-1.54776e-05
-1.68337e-05
-3.05337e-05
-8.37454e-06
-4.56851e-06
1.45775e-05
2.06446e-05
3.161e-05
3.5364e-05
4.37865e-05
4.38843e-05
4.25911e-05
4.14972e-05
3.63521e-05
3.16254e-05
2.2134e-05
1.32209e-05
4.41788e-06
-2.44201e-06
1.1551e-05
6.41151e-06
2.27392e-05
2.05266e-05
3.41609e-05
3.02709e-05
3.88927e-05
3.74199e-05
4.2094e-05
4.21877e-05
3.41129e-05
3.52137e-05
3.54668e-05
3.64184e-05
3.51083e-05
3.67135e-05
3.64893e-05
3.97623e-05
3.90675e-05
3.78402e-05
2.53885e-05
-5.23403e-06
-6.21172e-06
-1.71518e-05
-1.95079e-06
4.28756e-07
1.47083e-05
1.92737e-05
2.78113e-05
3.05297e-05
3.50564e-05
3.48323e-05
3.39388e-05
3.29609e-05
2.91492e-05
2.55947e-05
1.88266e-05
1.17202e-05
5.84077e-06
-9.17902e-07
6.80487e-06
6.97337e-06
2.18171e-05
1.97505e-05
2.98123e-05
2.60873e-05
3.20204e-05
3.0573e-05
3.39824e-05
3.38382e-05
3.02491e-05
3.05406e-05
3.07423e-05
3.09569e-05
2.94846e-05
2.98292e-05
2.91959e-05
2.96619e-05
3.00554e-05
2.6175e-05
2.10631e-05
7.85255e-07
1.06731e-06
-6.94747e-06
3.89831e-06
5.44486e-06
1.58417e-05
1.9231e-05
2.55977e-05
2.73384e-05
3.01435e-05
2.95151e-05
2.90743e-05
2.81516e-05
2.5206e-05
2.26107e-05
1.84042e-05
1.24976e-05
9.30915e-06
3.23393e-06
8.50043e-06
8.23106e-06
2.00054e-05
1.76082e-05
2.5559e-05
2.28919e-05
2.72414e-05
2.64405e-05
2.91183e-05
2.88064e-05
2.77303e-05
2.72026e-05
2.75167e-05
2.72551e-05
2.55529e-05
2.52092e-05
2.42446e-05
2.28769e-05
2.39356e-05
1.92585e-05
1.82216e-05
4.72374e-06
6.75154e-06
9.8806e-07
9.01276e-06
1.00732e-05
1.72662e-05
1.98393e-05
2.4455e-05
2.52679e-05
2.72882e-05
2.61674e-05
2.61906e-05
2.51829e-05
2.28028e-05
2.1204e-05
1.83569e-05
1.3519e-05
1.28512e-05
6.62575e-06
1.158e-05
9.01702e-06
1.84043e-05
1.5879e-05
2.20709e-05
2.06781e-05
2.39736e-05
2.39778e-05
2.60726e-05
2.56166e-05
2.59839e-05
2.49948e-05
2.55799e-05
2.47104e-05
2.31221e-05
2.24058e-05
2.15309e-05
1.86812e-05
2.0299e-05
1.5231e-05
1.69623e-05
7.57617e-06
1.11359e-05
6.40832e-06
1.29309e-05
1.36514e-05
1.85842e-05
2.06924e-05
2.371e-05
2.40428e-05
2.56829e-05
2.363e-05
2.446e-05
2.3366e-05
2.10892e-05
2.01354e-05
1.83241e-05
1.39518e-05
1.51966e-05
8.86459e-06
1.39793e-05
9.66661e-06
1.75642e-05
1.46399e-05
1.99047e-05
1.94996e-05
2.15935e-05
2.26048e-05
2.42748e-05
2.347e-05
2.53548e-05
2.33706e-05
2.45171e-05
2.30598e-05
2.12412e-05
2.12585e-05
1.98681e-05
1.62324e-05
1.92491e-05
1.27253e-05
1.72012e-05
8.92842e-06
1.42929e-05
1.01875e-05
1.5345e-05
1.64799e-05
1.93794e-05
2.1539e-05
2.3204e-05
2.28752e-05
2.43513e-05
2.18355e-05
2.35248e-05
2.181e-05
1.99113e-05
1.95134e-05
1.84009e-05
1.3383e-05
1.67225e-05
9.64598e-06
1.57954e-05
9.84292e-06
1.75818e-05
1.35184e-05
1.85167e-05
1.87819e-05
2.01203e-05
2.19995e-05
2.27481e-05
2.20908e-05
2.52444e-05
2.1479e-05
2.40896e-05
2.24886e-05
1.97614e-05
2.03843e-05
1.91915e-05
1.4677e-05
1.91727e-05
1.13492e-05
1.7959e-05
9.72257e-06
1.65627e-05
1.21722e-05
1.71563e-05
1.85346e-05
1.91101e-05
2.23172e-05
2.33058e-05
2.18274e-05
2.3863e-05
1.99607e-05
2.29882e-05
2.07931e-05
1.83051e-05
1.95058e-05
1.81946e-05
1.23477e-05
1.8212e-05
8.83955e-06
1.75621e-05
8.97791e-06
1.77299e-05
1.26206e-05
1.73296e-05
1.87792e-05
1.86705e-05
2.17795e-05
2.16468e-05
2.03556e-05
2.50867e-05
2.02209e-05
2.41759e-05
2.15137e-05
1.85511e-05
2.04123e-05
1.88144e-05
1.29433e-05
1.98369e-05
1.00015e-05
1.92112e-05
9.61938e-06
1.85478e-05
1.27528e-05
1.78809e-05
1.97553e-05
1.89099e-05
2.31166e-05
2.27016e-05
2.08892e-05
2.40696e-05
1.72659e-05
2.29553e-05
2.03813e-05
1.5697e-05
1.99661e-05
1.7925e-05
1.03442e-05
1.93949e-05
7.09993e-06
1.89712e-05
7.42191e-06
1.82873e-05
1.11236e-05
1.61211e-05
1.93838e-05
1.64074e-05
2.18531e-05
2.10084e-05
1.78036e-05
2.51519e-05
1.83445e-05
2.46806e-05
2.075e-05
1.68886e-05
2.10925e-05
1.83925e-05
1.06968e-05
2.13674e-05
7.71727e-06
2.10961e-05
8.04914e-06
2.02275e-05
1.19522e-05
1.79747e-05
2.06216e-05
1.77081e-05
2.40053e-05
2.19792e-05
1.94749e-05
2.41555e-05
1.40254e-05
2.3793e-05
1.92356e-05
1.23532e-05
2.11389e-05
1.74366e-05
6.62768e-06
2.11059e-05
3.59397e-06
2.08138e-05
4.24078e-06
1.92905e-05
8.31631e-06
1.46156e-05
1.96848e-05
1.35641e-05
2.25453e-05
1.94865e-05
1.4718e-05
2.58194e-05
1.5494e-05
2.5657e-05
1.97794e-05
1.36878e-05
2.23958e-05
1.76893e-05
7.6583e-06
2.29506e-05
4.57822e-06
2.2818e-05
5.3327e-06
2.14772e-05
9.46305e-06
1.73859e-05
2.16343e-05
1.52208e-05
2.49625e-05
2.08093e-05
1.66245e-05
2.50889e-05
7.58352e-06
2.63957e-05
1.82528e-05
5.39035e-06
2.43555e-05
1.6844e-05
-1.24815e-06
2.46716e-05
-3.72563e-06
2.43262e-05
-2.66561e-06
2.17174e-05
1.89423e-06
1.20246e-05
2.10877e-05
7.46904e-06
2.46147e-05
1.78264e-05
8.76096e-06
2.62145e-05
1.03368e-05
2.75045e-05
1.76157e-05
8.19964e-06
2.5009e-05
1.59315e-05
1.69551e-06
2.51547e-05
-1.26565e-06
2.48613e-05
-1.98841e-07
2.26532e-05
4.18499e-06
1.55145e-05
2.18276e-05
1.01615e-05
2.62347e-05
1.79912e-05
1.17807e-05
2.82845e-05
-6.76596e-06
3.40722e-05
1.44171e-05
-1.19729e-05
3.40235e-05
1.38314e-05
-1.99311e-05
3.23798e-05
-2.0677e-05
3.13105e-05
-1.89696e-05
2.70499e-05
-1.40779e-05
6.78545e-06
2.4576e-05
-6.67183e-06
3.09011e-05
1.29156e-05
-5.60846e-06
-0.0109835
-0.010591
-0.0102851
-0.0100737
-0.00995723
-0.00994474
-0.0100656
-0.0103004
-0.0106431
-0.0110696
-0.0115577
-0.0120562
-0.0125021
-0.0128172
-0.0129507
-0.0129132
-0.0127127
-0.0123649
-0.0119196
-0.0114401
0.00232677
0.00228092
0.00214982
0.0019884
0.00183439
0.0017445
0.00167545
0.00159031
0.00146821
0.00131387
0.00111184
0.00088875
0.000699637
0.000605298
0.000667408
0.000935537
0.00131222
0.00170484
0.0020363
0.00225083
-0.00233577
-0.00210026
-0.0019147
-0.00177893
-0.0017295
-0.00178545
-0.0019131
-0.00206294
-0.0022809
-0.00253697
-0.00286841
-0.00321952
-0.00352233
-0.0036923
-0.00372899
-0.00365394
-0.00346568
-0.00318766
-0.00288599
-0.00259662
0.00290952
0.00297298
0.00299724
0.00301471
0.00301967
0.00301961
0.00295296
0.00287485
0.00270823
0.00251536
0.00218756
0.00181851
0.00151189
0.00138131
0.0015087
0.00176822
0.00210673
0.00241219
0.00264669
0.00280976
-0.000458466
-0.000310727
-0.000237785
-0.00019077
-0.000228246
-0.000243987
-0.00030533
-0.000352198
-0.000507635
-0.000703812
-0.00112446
-0.00163033
-0.00205836
-0.00228676
-0.00231032
-0.0021279
-0.00177048
-0.00136243
-0.000981285
-0.000674031
0.0020236
0.00212526
0.00217587
0.00222166
0.00221795
0.00220784
0.002125
0.00205343
0.00185789
0.00163382
0.00112006
0.000583301
0.000207988
0.000147884
0.000363146
0.000721011
0.00109921
0.00142679
0.00169061
0.00188875
6.04919e-05
0.000104549
0.000108695
0.000112931
9.05917e-05
0.000112611
8.22481e-05
7.49961e-05
-7.18545e-05
-0.00028237
-0.000890655
-0.00153876
-0.00194121
-0.00199522
-0.00169833
-0.00124478
-0.000786665
-0.000429812
-0.0001774
-2.11198e-05
0.00125536
0.00132552
0.00135827
0.00139229
0.00136779
0.00135392
0.00127688
0.00121094
0.0010228
0.000771037
0.000115674
-0.000489009
-0.00075576
-0.000571228
-0.000172413
0.000240138
0.000601239
0.000855216
0.00104105
0.00116833
0.000173578
0.000183444
0.000171042
0.00017217
0.000164687
0.000188956
0.000169071
0.000164264
4.10131e-05
-0.000181177
-0.000863387
-0.00150311
-0.0017175
-0.00145511
-0.000968106
-0.000552166
-0.000224517
-3.1241e-05
9.05131e-05
0.00015039
0.000743089
0.000783252
0.000799557
0.000815135
0.000792348
0.00077707
0.000717177
0.000662082
0.000517897
0.000290136
-0.000336986
-0.000846575
-0.00085552
-0.000556328
-0.00013263
0.000166501
0.000398352
0.000530186
0.000630597
0.000695153
0.000178872
0.000182658
0.00017242
0.000178143
0.000172782
0.000191098
0.00017645
0.00018043
9.86285e-05
-4.70701e-05
-0.000623221
-0.00115635
-0.00109698
-0.000794107
-0.000407242
-0.000171885
6.42034e-06
8.87208e-05
0.000147188
0.000170089
0.000436307
0.000457265
0.000463303
0.000469455
0.000450312
0.000437308
0.000393443
0.000357406
0.000265712
0.000139227
-0.000326179
-0.000619578
-0.000506405
-0.000239398
3.33549e-05
0.000170582
0.000283722
0.000332638
0.000382481
0.000411228
0.000155756
0.000160406
0.000155497
0.000162827
0.00015812
0.000173575
0.000164334
0.000190747
0.000156066
0.000180827
-0.000199655
-0.000575047
-0.000488928
-0.000327851
-0.000117465
-2.51667e-05
6.67832e-05
9.93851e-05
0.000135144
0.000147511
0.000262134
0.000272785
0.000273625
0.000275985
0.000259754
0.000249648
0.000216632
0.000197929
0.000150828
0.000142222
-8.04684e-05
-0.000197961
-0.000125445
-1.02804e-05
0.000111782
0.000143337
0.000195069
0.000207718
0.00023563
0.000248218
0.000127448
0.000133229
0.000132078
0.000139138
0.000135243
0.000148729
0.000144339
0.000185291
0.000191613
0.000365514
0.000228868
-0.000146377
-0.000154549
-0.00013983
-4.82879e-05
-1.04443e-05
5.46332e-05
7.58489e-05
0.000106676
0.000117611
0.000166089
0.000171805
0.000170632
0.00017133
0.00015769
0.000149291
0.000122271
0.000109744
7.80267e-05
0.000145042
0.000251624
8.31272e-06
-2.29792e-05
-1.51188e-05
5.42118e-05
6.77103e-05
0.000114908
0.000125749
0.00014907
0.000156776
0.000102616
0.00010811
0.000108592
0.00011422
0.000110914
0.000120298
0.000116504
0.000141278
0.000130426
0.000185695
0.00010864
-6.10656e-05
-5.50081e-05
-7.63071e-05
-1.48735e-05
-4.39969e-06
4.26979e-05
5.72604e-05
8.33609e-05
9.28536e-05
0.000114259
0.000117233
0.000115569
0.000115506
0.000104514
9.7321e-05
7.62363e-05
6.32232e-05
4.13869e-05
4.32793e-05
7.529e-05
4.56337e-06
2.90821e-05
2.1497e-05
6.15399e-05
5.81774e-05
8.66824e-05
8.85697e-05
0.000104347
0.000108041
8.37657e-05
8.7926e-05
8.87198e-05
9.25431e-05
8.95335e-05
9.50682e-05
9.22413e-05
0.000104241
9.67613e-05
0.000106172
6.34037e-05
-2.5771e-05
-1.74727e-05
-4.13712e-05
2.75707e-07
3.52058e-06
3.81536e-05
4.77494e-05
6.82301e-05
7.53777e-05
8.58581e-05
8.72724e-05
8.58012e-05
8.53596e-05
7.68577e-05
7.0965e-05
5.52601e-05
4.32156e-05
2.73534e-05
1.70983e-05
3.10684e-05
8.90683e-06
3.95531e-05
3.09249e-05
5.91478e-05
5.14632e-05
7.03061e-05
6.88949e-05
7.9863e-05
8.14446e-05
7.05998e-05
7.30878e-05
7.37051e-05
7.58795e-05
7.27991e-05
7.55094e-05
7.30562e-05
7.74891e-05
7.3726e-05
7.00345e-05
4.88291e-05
-5.596e-06
4.98088e-07
-1.95357e-05
9.77423e-06
1.08815e-05
3.66544e-05
4.32912e-05
5.89335e-05
6.37531e-05
6.97906e-05
7.01654e-05
6.91941e-05
6.85481e-05
6.21077e-05
5.76169e-05
4.6354e-05
3.61293e-05
2.5752e-05
1.41744e-05
2.27158e-05
1.40056e-05
4.07002e-05
3.28562e-05
5.37762e-05
4.64015e-05
5.97234e-05
5.78406e-05
6.58472e-05
6.64079e-05
6.19795e-05
6.27594e-05
6.32812e-05
6.40782e-05
6.09204e-05
6.16996e-05
5.92041e-05
5.91695e-05
5.81586e-05
5.01521e-05
4.17975e-05
6.17865e-06
1.24168e-05
-2.86347e-06
1.84678e-05
1.86632e-05
3.74253e-05
4.20921e-05
5.36319e-05
5.64836e-05
6.06552e-05
5.99046e-05
5.96009e-05
5.86877e-05
5.35725e-05
5.02965e-05
4.31057e-05
3.41037e-05
2.87398e-05
1.76118e-05
2.47519e-05
1.81887e-05
3.95059e-05
3.20039e-05
4.83915e-05
4.28856e-05
5.26212e-05
5.15186e-05
5.75807e-05
5.74047e-05
5.66389e-05
5.57262e-05
5.65096e-05
5.63098e-05
5.29207e-05
5.26995e-05
5.01608e-05
4.7178e-05
4.82409e-05
3.88322e-05
3.79188e-05
1.3774e-05
2.15569e-05
1.00055e-05
2.605e-05
2.59863e-05
3.90256e-05
4.25578e-05
5.08278e-05
5.19533e-05
5.53905e-05
5.33956e-05
5.39105e-05
5.25261e-05
4.82539e-05
4.63631e-05
4.14231e-05
3.35242e-05
3.28004e-05
2.11298e-05
2.92988e-05
2.07468e-05
3.8242e-05
3.1137e-05
4.4029e-05
4.07831e-05
4.79245e-05
4.8062e-05
5.25456e-05
5.17892e-05
5.32327e-05
5.10842e-05
5.25232e-05
5.11242e-05
4.79153e-05
4.72848e-05
4.51487e-05
3.97369e-05
4.2705e-05
3.23492e-05
3.67179e-05
1.903e-05
2.86249e-05
1.88203e-05
3.18752e-05
3.18112e-05
4.06471e-05
4.37777e-05
4.91286e-05
4.92486e-05
5.25146e-05
4.85764e-05
5.05919e-05
4.86828e-05
4.45228e-05
4.37218e-05
4.04016e-05
3.27189e-05
3.58147e-05
2.34276e-05
3.31886e-05
2.2461e-05
3.79276e-05
3.04822e-05
4.14462e-05
4.00832e-05
4.45459e-05
4.64186e-05
4.9609e-05
4.80446e-05
5.19099e-05
4.7659e-05
5.04034e-05
4.7766e-05
4.41566e-05
4.48573e-05
4.21323e-05
3.51531e-05
4.13163e-05
2.82029e-05
3.78178e-05
2.15419e-05
3.38654e-05
2.48283e-05
3.55017e-05
3.65134e-05
4.15377e-05
4.52208e-05
4.80295e-05
4.69291e-05
5.04376e-05
4.50066e-05
4.88976e-05
4.5667e-05
4.18327e-05
4.22613e-05
3.99204e-05
3.07576e-05
3.81237e-05
2.37098e-05
3.64475e-05
2.29507e-05
3.87618e-05
2.95077e-05
3.9839e-05
3.99302e-05
4.23065e-05
4.59897e-05
4.72196e-05
4.55002e-05
5.16494e-05
4.39632e-05
4.96147e-05
4.62564e-05
4.1095e-05
4.33061e-05
4.07684e-05
3.18801e-05
4.16478e-05
2.54755e-05
3.97831e-05
2.26537e-05
3.78017e-05
2.78196e-05
3.81467e-05
4.00497e-05
4.07863e-05
4.67064e-05
4.78713e-05
4.47982e-05
4.98006e-05
4.1305e-05
4.81393e-05
4.36358e-05
3.85534e-05
4.21142e-05
3.92341e-05
2.80932e-05
4.07062e-05
2.15393e-05
3.97999e-05
2.1408e-05
3.97683e-05
2.82887e-05
3.83138e-05
4.06551e-05
3.98392e-05
4.61781e-05
4.54107e-05
4.2359e-05
5.15818e-05
4.09998e-05
4.98875e-05
4.43382e-05
3.82378e-05
4.3467e-05
3.98885e-05
2.81267e-05
4.33005e-05
2.23729e-05
4.25739e-05
2.18399e-05
4.13438e-05
2.82642e-05
3.90616e-05
4.23775e-05
3.97991e-05
4.83158e-05
4.66758e-05
4.2591e-05
5.03206e-05
3.61979e-05
4.84393e-05
4.24863e-05
3.35924e-05
4.31058e-05
3.84679e-05
2.3711e-05
4.3201e-05
1.75594e-05
4.28616e-05
1.81858e-05
4.13904e-05
2.55353e-05
3.64869e-05
4.21194e-05
3.57976e-05
4.68727e-05
4.40692e-05
3.77554e-05
5.19973e-05
3.67522e-05
5.11379e-05
4.26628e-05
3.4281e-05
4.50312e-05
3.88693e-05
2.30855e-05
4.64881e-05
1.7274e-05
4.64493e-05
1.81386e-05
4.45506e-05
2.59849e-05
3.8839e-05
4.41543e-05
3.68665e-05
5.02128e-05
4.50745e-05
3.92717e-05
5.08528e-05
2.9745e-05
5.0395e-05
4.01909e-05
2.69517e-05
4.5664e-05
3.72661e-05
1.62207e-05
4.68404e-05
1.03038e-05
4.68098e-05
1.17527e-05
4.37455e-05
1.99907e-05
3.39266e-05
4.31194e-05
3.02286e-05
4.86199e-05
4.11714e-05
3.18082e-05
5.34609e-05
3.03168e-05
5.36147e-05
4.04702e-05
2.72371e-05
4.81926e-05
3.72416e-05
1.58849e-05
5.02504e-05
9.89397e-06
5.04627e-05
1.16644e-05
4.73815e-05
2.01676e-05
3.73126e-05
4.61795e-05
3.12063e-05
5.25285e-05
4.24365e-05
3.31415e-05
5.27996e-05
1.78452e-05
5.55084e-05
3.77824e-05
1.4121e-05
5.19973e-05
3.55992e-05
1.71182e-06
5.36647e-05
-3.46858e-06
5.35278e-05
-1.14784e-06
4.83549e-05
8.06514e-06
2.94436e-05
4.5727e-05
1.90344e-05
5.27073e-05
3.75455e-05
2.09014e-05
5.48583e-05
1.94972e-05
5.81931e-05
3.62172e-05
1.55895e-05
5.43529e-05
3.37643e-05
3.1012e-06
5.56301e-05
-2.68088e-06
5.55003e-05
-1.99324e-07
5.05464e-05
8.93218e-06
3.35673e-05
4.72901e-05
2.07027e-05
5.58969e-05
3.69231e-05
2.30753e-05
5.81344e-05
-5.0609e-06
6.85095e-05
3.11192e-05
-1.32665e-05
6.84241e-05
3.03233e-05
-2.79087e-05
6.69419e-05
-3.07303e-05
6.56287e-05
-2.7273e-05
5.743e-05
-1.74187e-05
2.13813e-05
5.15627e-05
-3.39742e-06
6.32273e-05
2.89504e-05
-1.64649e-06
-0.0135253
-0.0129763
-0.0125269
-0.0121992
-0.0120073
-0.0119808
-0.012136
-0.0124513
-0.0129158
-0.0134937
-0.0141489
-0.0148127
-0.0154041
-0.0158285
-0.0160221
-0.0159926
-0.0157518
-0.0153209
-0.0147583
-0.0141371
0.00193545
0.00199237
0.00192613
0.0017917
0.0016344
0.00151922
0.00138306
0.00120822
0.000973464
0.000688554
0.000342424
-2.45628e-05
-0.000336408
-0.000509992
-0.000465008
-0.000151947
0.000326265
0.000860391
0.00135177
0.00172351
-0.00274538
-0.00243745
-0.002221
-0.00208588
-0.00207174
-0.00217916
-0.00237595
-0.00261575
-0.00295031
-0.00334773
-0.00384741
-0.00436963
-0.00481182
-0.00505031
-0.00507831
-0.00489641
-0.00453448
-0.00405752
-0.00356711
-0.00312109
0.00338102
0.00345857
0.0034772
0.00348
0.00345742
0.00341339
0.00328774
0.0031323
0.00285404
0.00251788
0.00200323
0.00145023
0.00102305
0.000886879
0.00113638
0.00158232
0.00213016
0.00261978
0.00299054
0.00323894
-0.000285123
-0.000126024
-5.48925e-05
-1.85281e-05
-7.93288e-05
-0.000120407
-0.000230166
-0.000343668
-0.000610537
-0.000961224
-0.0016014
-0.00231476
-0.00284411
-0.00304747
-0.00291541
-0.0025169
-0.00195121
-0.00138203
-0.000895999
-0.000529312
0.00247692
0.00259619
0.0026523
0.00269899
0.00267613
0.00264273
0.00251133
0.00237437
0.0020635
0.00167559
0.000918142
0.000183421
-0.000249229
-0.000194304
0.000212918
0.000770138
0.00130715
0.00174236
0.00207461
0.00231569
0.000290573
0.00034842
0.000355485
0.000357848
0.000326027
0.000334255
0.000266304
0.000205474
-5.07195e-05
-0.000428758
-0.00130509
-0.00214783
-0.00257418
-0.0024806
-0.00197821
-0.00134296
-0.000752431
-0.000311309
-4.18443e-06
0.000187444
0.00158409
0.00167273
0.00171261
0.00174919
0.00171221
0.0016823
0.00156627
0.0014462
0.00115026
0.000728543
-0.000199993
-0.000970146
-0.00119931
-0.000856901
-0.000266105
0.000288494
0.000751841
0.0010729
0.0013084
0.00147172
0.000370372
0.000391839
0.000381645
0.000385164
0.000369663
0.000385392
0.000336194
0.000289188
7.13383e-05
-0.000312693
-0.00126891
-0.00205749
-0.0021984
-0.00176688
-0.00110701
-0.00057484
-0.000163598
8.26327e-05
0.00024385
0.000330258
0.000966916
0.00101974
0.00104001
0.00105698
0.00102501
0.000999121
0.000910251
0.000815091
0.000585351
0.000209012
-0.000674368
-0.00129044
-0.0012
-0.000746914
-0.000182741
0.000203696
0.000502297
0.000676946
0.000812443
0.000901583
0.00032926
0.000341115
0.000332074
0.00034023
0.000328599
0.0003419
0.000306436
0.000283348
0.000133165
-0.000135344
-0.000946019
-0.00156643
-0.00139513
-0.000962338
-0.000460971
-0.000160893
7.00928e-05
0.000183808
0.000269006
0.000308983
0.000586343
0.000615118
0.000622813
0.000630092
0.000603838
0.000584363
0.000520821
0.000460753
0.000313207
8.68644e-05
-0.000575913
-0.000910001
-0.000694468
-0.00032501
3.17244e-05
0.000211537
0.000364059
0.000435529
0.000507442
0.000550531
0.000266026
0.000276371
0.000272248
0.000281731
0.000272268
0.000285791
0.000263554
0.000279549
0.000206552
0.000171369
-0.00037388
-0.000792286
-0.000621279
-0.000392944
-0.000119387
4.87871e-07
0.000123944
0.000172992
0.000226703
0.000249727
0.000364145
0.000379769
0.000381196
0.000384602
0.000362825
0.000349161
0.000303307
0.0002741
0.000198427
0.000146765
-0.000189848
-0.000322273
-0.000185495
-2.68487e-05
0.000136425
0.000181803
0.000256414
0.000279754
0.000322202
0.000343211
0.00020789
0.00021789
0.000217356
0.000226287
0.000218767
0.000232208
0.000220238
0.00026197
0.000254
0.000423583
0.000205039
-0.0002279
-0.000194029
-0.000162101
-3.6712e-05
1.10667e-05
9.82471e-05
0.000129175
0.000173648
0.000191881
0.000238079
0.000247175
0.000246171
0.000247767
0.000229669
0.00021919
0.000183031
0.000166622
0.000120614
0.000187993
0.000272708
-3.08702e-05
-4.12529e-05
-2.51719e-05
7.10934e-05
9.16924e-05
0.000157746
0.000175616
0.000210304
0.000223633
0.000162657
0.000171248
0.000172165
0.000179251
0.000173012
0.000182652
0.000173525
0.00019986
0.000179807
0.000239136
0.000132108
-8.80836e-05
-6.9109e-05
-9.18664e-05
-6.26323e-06
9.29446e-06
7.46625e-05
9.61319e-05
0.000133279
0.000148035
0.000167926
0.000173193
0.000171518
0.000172123
0.000157505
0.000148797
0.00012079
0.000104851
7.36946e-05
7.40768e-05
9.73846e-05
-5.64436e-06
3.06938e-05
2.03613e-05
7.89226e-05
7.73827e-05
0.000120022
0.00012599
0.000150447
0.000157863
0.000130582
0.000136847
0.000137872
0.000142675
0.000137174
0.00014271
0.000135852
0.000147971
0.000134433
0.000142431
8.56083e-05
-3.37934e-05
-1.73128e-05
-4.70719e-05
1.15322e-05
1.66167e-05
6.49719e-05
7.88553e-05
0.000107767
0.000118477
0.000128394
0.000131255
0.000129692
0.000129652
0.000118198
0.000111064
9.01333e-05
7.51797e-05
5.28712e-05
3.85368e-05
4.83339e-05
9.57526e-06
5.01738e-05
3.66798e-05
7.82047e-05
6.98989e-05
9.90121e-05
9.97248e-05
0.000117148
0.000121086
0.000109099
0.000112822
0.000113518
0.000116219
0.000110931
0.000113357
0.000107727
0.000111135
0.000103488
9.60295e-05
6.81693e-05
-4.55519e-06
8.1135e-06
-1.7803e-05
2.39185e-05
2.52967e-05
6.12193e-05
7.04445e-05
9.23631e-05
9.94293e-05
0.000105562
0.000106664
0.00010561
0.000105094
9.62182e-05
9.07076e-05
7.55661e-05
6.2513e-05
4.80456e-05
3.17119e-05
3.87957e-05
2.03283e-05
5.5411e-05
4.28124e-05
7.36569e-05
6.49826e-05
8.58774e-05
8.51704e-05
9.798e-05
9.99462e-05
9.53786e-05
9.6608e-05
9.7182e-05
9.8098e-05
9.29333e-05
9.3256e-05
8.82128e-05
8.64373e-05
8.32376e-05
7.08195e-05
6.0004e-05
1.25748e-05
2.46424e-05
4.3732e-06
3.5069e-05
3.49387e-05
6.11225e-05
6.74245e-05
8.35553e-05
8.76743e-05
9.23809e-05
9.16583e-05
9.13935e-05
9.03245e-05
8.3104e-05
7.90304e-05
6.90592e-05
5.72721e-05
4.98242e-05
3.39131e-05
4.14879e-05
2.79663e-05
5.63745e-05
4.46214e-05
6.87343e-05
6.20523e-05
7.73811e-05
7.71252e-05
8.67383e-05
8.72517e-05
8.70011e-05
8.57821e-05
8.67651e-05
8.63164e-05
8.10318e-05
8.03608e-05
7.57693e-05
7.05385e-05
7.08734e-05
5.68461e-05
5.61574e-05
2.36768e-05
3.70435e-05
2.13051e-05
4.46302e-05
4.41633e-05
6.24905e-05
6.72413e-05
7.87868e-05
8.04242e-05
8.47518e-05
8.20654e-05
8.28996e-05
8.10227e-05
7.48329e-05
7.24542e-05
6.54437e-05
5.47161e-05
5.36907e-05
3.70797e-05
4.7303e-05
3.27298e-05
5.65909e-05
4.56583e-05
6.47776e-05
6.0795e-05
7.19672e-05
7.29979e-05
8.0001e-05
7.93699e-05
8.18373e-05
7.86295e-05
8.06416e-05
7.857e-05
7.35345e-05
7.2649e-05
6.88577e-05
6.0699e-05
6.43568e-05
4.90188e-05
5.57074e-05
3.12639e-05
4.65665e-05
3.29282e-05
5.19387e-05
5.16657e-05
6.40982e-05
6.84495e-05
7.59669e-05
7.6035e-05
8.05865e-05
7.50719e-05
7.79695e-05
7.51689e-05
6.90891e-05
6.823e-05
6.32812e-05
5.24863e-05
5.69703e-05
3.91387e-05
5.25476e-05
3.58202e-05
5.75767e-05
4.63574e-05
6.26457e-05
6.10823e-05
6.81516e-05
7.12941e-05
7.60961e-05
7.41354e-05
7.96508e-05
7.33685e-05
7.73783e-05
7.35669e-05
6.80085e-05
6.90273e-05
6.4781e-05
5.44798e-05
6.30246e-05
4.3982e-05
5.79936e-05
3.50501e-05
5.37132e-05
4.07419e-05
5.6548e-05
5.78088e-05
6.49011e-05
7.02165e-05
7.41891e-05
7.24896e-05
7.78293e-05
6.9784e-05
7.54735e-05
7.07936e-05
6.48732e-05
6.59463e-05
6.21533e-05
4.91887e-05
5.9865e-05
3.88737e-05
5.71845e-05
3.69028e-05
5.9668e-05
4.61342e-05
6.13966e-05
6.18763e-05
6.54944e-05
7.11511e-05
7.30418e-05
7.04485e-05
7.90671e-05
6.79889e-05
7.61235e-05
7.10406e-05
6.34612e-05
6.69251e-05
6.28528e-05
4.97727e-05
6.39633e-05
4.03194e-05
6.13323e-05
3.65603e-05
5.91936e-05
4.45504e-05
5.98011e-05
6.25394e-05
6.37096e-05
7.22026e-05
7.36076e-05
6.92465e-05
7.69927e-05
6.43903e-05
7.4467e-05
6.78055e-05
6.00503e-05
6.56103e-05
6.10143e-05
4.50175e-05
6.33614e-05
3.55623e-05
6.20095e-05
3.50566e-05
6.18288e-05
4.49928e-05
5.99542e-05
6.34996e-05
6.23072e-05
7.17993e-05
7.06596e-05
6.60395e-05
7.8988e-05
6.33182e-05
7.64578e-05
6.82578e-05
5.89966e-05
6.71928e-05
6.15571e-05
4.42626e-05
6.66257e-05
3.57652e-05
6.56569e-05
3.51619e-05
6.41148e-05
4.48336e-05
6.08187e-05
6.5827e-05
6.19011e-05
7.44432e-05
7.18437e-05
6.57206e-05
7.76479e-05
5.72075e-05
7.50226e-05
6.58838e-05
5.30948e-05
6.7015e-05
5.98149e-05
3.85384e-05
6.70459e-05
2.96722e-05
6.66377e-05
3.05529e-05
6.46099e-05
4.13664e-05
5.78146e-05
6.57978e-05
5.69073e-05
7.30981e-05
6.86435e-05
5.97023e-05
7.96266e-05
5.6838e-05
7.8282e-05
6.5736e-05
5.28616e-05
6.95e-05
6.0044e-05
3.67266e-05
7.12574e-05
2.8271e-05
7.12983e-05
2.96587e-05
6.86298e-05
4.12255e-05
6.02166e-05
6.84047e-05
5.73688e-05
7.71432e-05
6.94121e-05
6.05294e-05
7.84821e-05
4.80108e-05
7.78529e-05
6.26148e-05
4.3664e-05
7.07009e-05
5.80251e-05
2.78987e-05
7.23211e-05
1.93412e-05
7.24243e-05
2.15303e-05
6.81976e-05
3.36589e-05
5.44499e-05
6.74834e-05
4.91097e-05
7.57201e-05
6.46025e-05
5.13116e-05
8.1586e-05
4.725e-05
8.1974e-05
6.24719e-05
4.24863e-05
7.4208e-05
5.76694e-05
2.5854e-05
7.68912e-05
1.72621e-05
7.73103e-05
1.99855e-05
7.27994e-05
3.25765e-05
5.77458e-05
7.12323e-05
4.8981e-05
8.05485e-05
6.54633e-05
5.15178e-05
8.10206e-05
3.20615e-05
8.47317e-05
5.90016e-05
2.64988e-05
7.9292e-05
5.54982e-05
8.5241e-06
8.15096e-05
8.527e-07
8.15127e-05
4.30354e-06
7.43569e-05
1.77612e-05
4.84916e-05
7.09296e-05
3.42198e-05
8.12e-05
5.9333e-05
3.66974e-05
8.36176e-05
3.21546e-05
8.85824e-05
5.66973e-05
2.61611e-05
8.30224e-05
5.30146e-05
7.88708e-06
8.47009e-05
-3.50702e-07
8.46841e-05
3.40794e-06
7.74671e-05
1.68997e-05
5.24198e-05
7.30971e-05
3.44345e-05
8.54452e-05
5.79289e-05
3.7459e-05
8.72199e-05
4.29028e-06
0.000100637
5.06056e-05
-6.50263e-06
9.94969e-05
4.89269e-05
-2.72299e-05
9.79204e-05
-3.21944e-05
9.65274e-05
-2.73082e-05
8.53635e-05
-1.30499e-05
3.84679e-05
7.79158e-05
7.13295e-06
9.38482e-05
4.83528e-05
9.54282e-06
-0.0149447
-0.0143195
-0.0138057
-0.0134303
-0.0132164
-0.0132002
-0.0133892
-0.0137613
-0.0143027
-0.0149703
-0.0157196
-0.0164714
-0.0171335
-0.017602
-0.0178087
-0.0177618
-0.0174765
-0.016981
-0.0163416
-0.0156382
0.0014171
0.00152596
0.00149669
0.00138328
0.00123612
0.00111256
0.000936203
0.000704025
0.000393903
2.18116e-05
-0.000417788
-0.000872644
-0.00125214
-0.00146089
-0.00140822
-0.00105227
-0.000506284
0.000110631
0.000687526
0.00113843
-0.00310334
-0.00274704
-0.00250739
-0.00236883
-0.00237909
-0.00252013
-0.00276472
-0.00306939
-0.00348792
-0.00398232