/*--------------------------------*- C++ -*----------------------------------*\
| =========                 |                                                 |
| \\      /  F ield         | OpenFOAM: The Open Source CFD Toolbox           |
|  \\    /   O peration     | Version:  2.4.0                                 |
|   \\  /    A nd           | Web:      www.OpenFOAM.org                      |
|    \\/     M anipulation  |                                                 |
\*---------------------------------------------------------------------------*/
FoamFile
{
    version     2.0;
    format      ascii;
    class       volScalarField;
    location    "480";
    object      p;
}
// * * * * * * * * * * * * * * * * * * * * * * * * * * * * * * * * * * * * * //

dimensions      [0 2 -2 0 0 0 0];

internalField   nonuniform List<scalar> 
283312
(
-0.0062688
-0.00632709
-0.00656663
-0.00690745
-0.00726153
-0.00755973
-0.00779388
-0.00795853
-0.00808583
-0.00819911
-0.00831843
-0.00843031
-0.00850269
-0.00847984
-0.00832858
-0.00805604
-0.00767303
-0.00721655
-0.00676795
-0.00642559
0.0021527
0.00164884
0.00122062
0.00094935
0.000848153
0.000912051
0.00105371
0.00119371
0.00130385
0.00139154
0.0014591
0.00153824
0.00166696
0.00186791
0.00215432
0.00252521
0.0028423
0.0029955
0.00292083
0.0026167
-0.00230069
-0.00215144
-0.00192961
-0.00169057
-0.00149926
-0.00140325
-0.00138599
-0.00139364
-0.00144425
-0.00148766
-0.00151962
-0.00149925
-0.00142739
-0.00132582
-0.00127676
-0.00137943
-0.0016155
-0.00190616
-0.00216647
-0.00230986
0.00148367
0.00165514
0.00179817
0.00191255
0.00199534
0.00206372
0.00207024
0.00207613
0.00204223
0.00205207
0.00206845
0.00211584
0.00214651
0.00210814
0.00198544
0.00174878
0.00150151
0.00131889
0.00126366
0.00133623
-0.000743809
-0.000546209
-0.000430036
-0.000352325
-0.000349562
-0.000337434
-0.000349582
-0.000336621
-0.000367367
-0.000345487
-0.000355908
-0.000411871
-0.000585893
-0.000896362
-0.00131472
-0.00165076
-0.00174242
-0.00160438
-0.00132257
-0.00100874
0.00120469
0.00131384
0.00137143
0.00141683
0.00143042
0.00143761
0.00140296
0.00138963
0.00132484
0.00133365
0.00127626
0.00115151
0.000878825
0.000525449
0.00026439
0.000194159
0.000321083
0.000561983
0.00082577
0.00104841
-0.00014995
-0.000110651
-0.00010391
-9.82859e-05
-0.000109688
-8.47221e-05
-8.52436e-05
-5.67898e-05
-8.85685e-05
-6.47874e-05
-0.000182219
-0.00045509
-0.000865812
-0.00126898
-0.0014
-0.00124823
-0.000936509
-0.00062432
-0.000382198
-0.000229262
0.000763865
0.000812736
0.000836115
0.000860896
0.000849104
0.000845419
0.000807786
0.000787304
0.000718254
0.000707342
0.000546845
0.000231569
-0.000173112
-0.000362229
-0.000309324
-7.78065e-05
0.000206581
0.000433253
0.000595412
0.000698881
1.2912e-07
1.74567e-06
-9.23302e-06
-1.0917e-05
-1.23625e-05
9.56124e-06
1.13994e-05
3.1313e-05
3.47841e-06
6.60341e-06
-0.000188837
-0.000597013
-0.00100232
-0.00108538
-0.000870425
-0.000579374
-0.000314648
-0.000150296
-5.41803e-05
-1.20481e-05
0.000441808
0.000466294
0.000477015
0.000487445
0.000474578
0.000466161
0.000435713
0.000413367
0.00035999
0.00034261
0.00016146
-0.000210245
-0.000462534
-0.000448343
-0.000215667
9.77964e-06
0.000194564
0.000299972
0.000370793
0.000412423
4.4214e-05
4.21332e-05
3.3216e-05
3.50457e-05
3.42883e-05
4.93399e-05
4.96908e-05
6.59875e-05
4.88196e-05
7.34266e-05
-0.000104126
-0.00053484
-0.000716751
-0.000634212
-0.000390496
-0.000205252
-6.71593e-05
-4.13824e-06
3.27907e-05
4.34235e-05
0.000251126
0.000262842
0.000266621
0.000269742
0.000258559
0.000249786
0.000226184
0.000208575
0.000173178
0.000192122
5.50931e-05
-0.000227671
-0.000332271
-0.000226132
-4.54064e-05
6.89551e-05
0.000154695
0.000191166
0.000221356
0.000237283
5.51897e-05
5.51262e-05
5.06153e-05
5.40472e-05
5.28494e-05
6.41102e-05
6.37443e-05
8.72936e-05
8.39134e-05
0.000190248
7.55268e-05
-0.000272196
-0.000356265
-0.000290585
-0.000144995
-6.32394e-05
4.75859e-06
2.88144e-05
4.88034e-05
5.33812e-05
0.000145622
0.00015078
0.000150966
0.000151251
0.000141465
0.000133672
0.000114516
0.000102342
8.16886e-05
0.000139028
9.80915e-05
-5.16056e-05
-0.00010874
-5.34765e-05
3.36643e-05
7.06331e-05
0.000108264
0.000118071
0.000133027
0.000138817
5.29471e-05
5.46485e-05
5.31573e-05
5.67021e-05
5.54912e-05
6.44698e-05
6.47579e-05
9.32847e-05
0.000105249
0.000280133
0.000267013
-5.06722e-05
-0.000137036
-0.000139591
-7.50739e-05
-3.47292e-05
1.12191e-05
2.6973e-05
4.41308e-05
4.90139e-05
8.90988e-05
9.12926e-05
9.00743e-05
8.92829e-05
8.09363e-05
7.40556e-05
5.76825e-05
4.70585e-05
2.89933e-05
8.60611e-05
0.00019589
3.70366e-05
-1.94386e-05
-1.94307e-05
2.15208e-05
3.4914e-05
6.34365e-05
7.02337e-05
8.19636e-05
8.5024e-05
4.63761e-05
4.85666e-05
4.84632e-05
5.12935e-05
5.01869e-05
5.61758e-05
5.59735e-05
7.23461e-05
6.84883e-05
0.000106979
6.6468e-05
-3.07832e-05
-4.01435e-05
-5.48746e-05
-2.09087e-05
-1.19213e-05
1.47669e-05
2.35061e-05
3.72701e-05
4.1827e-05
5.95333e-05
6.0277e-05
5.87715e-05
5.76757e-05
5.09499e-05
4.50754e-05
3.22769e-05
2.18606e-05
9.76795e-06
9.08694e-06
4.07728e-05
9.82436e-06
1.88846e-05
1.65377e-05
3.63583e-05
3.515e-05
4.91019e-05
4.92164e-05
5.62271e-05
5.71359e-05
3.95806e-05
4.14016e-05
4.1685e-05
4.3534e-05
4.24302e-05
4.58629e-05
4.581e-05
5.38697e-05
5.14607e-05
5.8149e-05
3.35674e-05
-1.54764e-05
-1.68329e-05
-3.05313e-05
-8.37018e-06
-4.56345e-06
1.45836e-05
2.06507e-05
3.16164e-05
3.53699e-05
4.37914e-05
4.38891e-05
4.2596e-05
4.15018e-05
3.63567e-05
3.16296e-05
2.21377e-05
1.32242e-05
4.41989e-06
-2.44053e-06
1.15526e-05
6.4132e-06
2.27421e-05
2.05297e-05
3.41645e-05
3.02744e-05
3.88969e-05
3.74242e-05
4.20988e-05
4.21924e-05
3.41168e-05
3.52172e-05
3.54703e-05
3.64215e-05
3.51114e-05
3.67162e-05
3.6492e-05
3.97648e-05
3.90698e-05
3.78425e-05
2.53894e-05
-5.23357e-06
-6.21106e-06
-1.71503e-05
-1.94796e-06
4.32053e-07
1.47123e-05
1.92777e-05
2.78156e-05
3.05336e-05
3.50597e-05
3.48353e-05
3.39419e-05
3.29637e-05
2.9152e-05
2.55971e-05
1.88287e-05
1.17218e-05
5.84192e-06
-9.17465e-07
6.80573e-06
6.97434e-06
2.1819e-05
1.97523e-05
2.98146e-05
2.60896e-05
3.20232e-05
3.05759e-05
3.39856e-05
3.38413e-05
3.02519e-05
3.05431e-05
3.07447e-05
3.0959e-05
2.94867e-05
2.98309e-05
2.91975e-05
2.96632e-05
3.00567e-05
2.61762e-05
2.10638e-05
7.85405e-07
1.06793e-06
-6.94648e-06
3.90031e-06
5.4471e-06
1.58445e-05
1.92338e-05
2.56006e-05
2.73412e-05
3.01458e-05
2.95172e-05
2.90764e-05
2.81534e-05
2.52077e-05
2.2612e-05
1.84055e-05
1.24984e-05
9.30987e-06
3.23398e-06
8.50095e-06
8.23153e-06
2.00066e-05
1.76093e-05
2.55606e-05
2.28936e-05
2.72435e-05
2.64426e-05
2.91206e-05
2.88087e-05
2.77323e-05
2.72044e-05
2.75184e-05
2.72565e-05
2.55543e-05
2.52102e-05
2.42457e-05
2.28775e-05
2.39363e-05
1.92589e-05
1.82221e-05
4.72374e-06
6.75212e-06
9.88754e-07
9.01425e-06
1.00748e-05
1.72683e-05
1.98413e-05
2.44572e-05
2.52699e-05
2.72899e-05
2.61689e-05
2.61921e-05
2.51841e-05
2.2804e-05
2.12048e-05
1.83578e-05
1.35192e-05
1.28517e-05
6.6256e-06
1.15804e-05
9.01716e-06
1.84052e-05
1.58797e-05
2.20721e-05
2.06793e-05
2.39752e-05
2.39794e-05
2.60744e-05
2.56183e-05
2.59854e-05
2.49962e-05
2.55811e-05
2.47113e-05
2.3123e-05
2.24063e-05
2.15315e-05
1.86812e-05
2.02994e-05
1.52309e-05
1.69626e-05
7.57606e-06
1.11365e-05
6.40882e-06
1.29321e-05
1.36526e-05
1.85858e-05
2.0694e-05
2.37116e-05
2.40443e-05
2.56843e-05
2.36311e-05
2.44611e-05
2.33668e-05
2.10899e-05
2.01358e-05
1.83246e-05
1.39517e-05
1.5197e-05
8.86428e-06
1.39796e-05
9.66654e-06
1.75648e-05
1.46404e-05
1.99058e-05
1.95006e-05
2.15948e-05
2.2606e-05
2.42762e-05
2.34713e-05
2.5356e-05
2.33716e-05
2.45181e-05
2.30605e-05
2.12418e-05
2.12587e-05
1.98684e-05
1.62322e-05
1.92494e-05
1.2725e-05
1.72015e-05
8.92822e-06
1.42934e-05
1.01879e-05
1.5346e-05
1.64808e-05
1.93807e-05
2.15402e-05
2.32053e-05
2.28764e-05
2.43523e-05
2.18364e-05
2.35256e-05
2.18106e-05
1.99118e-05
1.95136e-05
1.84013e-05
1.33827e-05
1.67228e-05
9.64555e-06
1.57957e-05
9.84273e-06
1.75823e-05
1.35188e-05
1.85176e-05
1.87826e-05
2.01215e-05
2.20005e-05
2.27492e-05
2.20919e-05
2.52453e-05
2.14799e-05
2.40903e-05
2.24891e-05
1.97618e-05
2.03844e-05
1.91918e-05
1.46765e-05
1.91729e-05
1.13487e-05
1.79592e-05
9.72228e-06
1.65631e-05
1.21724e-05
1.71571e-05
1.85354e-05
1.91112e-05
2.23182e-05
2.33069e-05
2.18285e-05
2.38638e-05
1.99615e-05
2.29888e-05
2.07936e-05
1.83054e-05
1.95059e-05
1.81949e-05
1.23473e-05
1.82123e-05
8.83899e-06
1.75625e-05
8.97763e-06
1.77304e-05
1.26208e-05
1.73304e-05
1.87798e-05
1.86715e-05
2.17803e-05
2.16478e-05
2.03565e-05
2.50875e-05
2.02216e-05
2.41764e-05
2.15141e-05
1.85513e-05
2.04123e-05
1.88146e-05
1.29427e-05
1.98371e-05
1.00008e-05
1.92115e-05
9.619e-06
1.85482e-05
1.2753e-05
1.78817e-05
1.97559e-05
1.89109e-05
2.31174e-05
2.27026e-05
2.08901e-05
2.40703e-05
1.72666e-05
2.29558e-05
2.03817e-05
1.56971e-05
1.99662e-05
1.79253e-05
1.03436e-05
1.93953e-05
7.09923e-06
1.89717e-05
7.42154e-06
1.82878e-05
1.11237e-05
1.61218e-05
1.93842e-05
1.64084e-05
2.18537e-05
2.10092e-05
1.78044e-05
2.51525e-05
1.83452e-05
2.4681e-05
2.07504e-05
1.68886e-05
2.10925e-05
1.83926e-05
1.0696e-05
2.13677e-05
7.7164e-06
2.10964e-05
8.04865e-06
2.0228e-05
1.19523e-05
1.79754e-05
2.06221e-05
1.77091e-05
2.4006e-05
2.19801e-05
1.94759e-05
2.4156e-05
1.4026e-05
2.37934e-05
1.9236e-05
1.23532e-05
2.1139e-05
1.74369e-05
6.6268e-06
2.11066e-05
3.59308e-06
2.08144e-05
4.24029e-06
1.92911e-05
8.31637e-06
1.46163e-05
1.96851e-05
1.3565e-05
2.25458e-05
1.94872e-05
1.47188e-05
2.582e-05
1.54946e-05
2.56574e-05
1.97798e-05
1.36877e-05
2.23959e-05
1.76895e-05
7.65729e-06
2.29511e-05
4.57717e-06
2.28186e-05
5.3321e-06
2.14777e-05
9.46308e-06
1.73866e-05
2.16346e-05
1.52218e-05
2.49631e-05
2.081e-05
1.66254e-05
2.50892e-05
7.58405e-06
2.6396e-05
1.82532e-05
5.39002e-06
2.43558e-05
1.68445e-05
-1.24948e-06
2.46726e-05
-3.72688e-06
2.43272e-05
-2.66633e-06
2.17181e-05
1.89419e-06
1.20252e-05
2.10878e-05
7.46995e-06
2.46149e-05
1.78269e-05
8.7618e-06
2.62148e-05
1.03374e-05
2.75049e-05
1.76161e-05
8.19935e-06
2.50092e-05
1.59318e-05
1.69418e-06
2.51556e-05
-1.26697e-06
2.48622e-05
-1.99613e-07
2.26539e-05
4.18494e-06
1.55151e-05
2.18278e-05
1.01625e-05
2.6235e-05
1.79918e-05
1.17817e-05
2.82843e-05
-6.76546e-06
3.40724e-05
1.44176e-05
-1.19739e-05
3.40244e-05
1.38321e-05
-1.99335e-05
3.23818e-05
-2.06791e-05
3.13123e-05
-1.89709e-05
2.70509e-05
-1.40782e-05
6.78593e-06
2.45758e-05
-6.67073e-06
3.09008e-05
1.29158e-05
-5.60732e-06
-0.010985
-0.0105926
-0.0102868
-0.0100754
-0.00995897
-0.00994656
-0.0100675
-0.0103024
-0.0106452
-0.0110718
-0.01156
-0.0120584
-0.0125042
-0.0128192
-0.0129527
-0.0129151
-0.0127145
-0.0123665
-0.0119212
-0.0114417
0.00232649
0.00228062
0.00214952
0.00198811
0.00183411
0.00174426
0.00167522
0.00159008
0.00146799
0.00131366
0.00111163
0.000888565
0.000699493
0.000605202
0.000667391
0.000935605
0.00131227
0.00170483
0.00203619
0.00225063
-0.00233602
-0.0021006
-0.00191512
-0.00177941
-0.00173003
-0.00178601
-0.00191369
-0.00206356
-0.00228156
-0.00253767
-0.00286912
-0.00322018
-0.00352291
-0.00369274
-0.00372932
-0.00365421
-0.00346588
-0.00318783
-0.00288615
-0.0025968
0.00290988
0.00297329
0.00299753
0.00301498
0.00301993
0.00301986
0.00295321
0.00287509
0.00270846
0.00251559
0.00218779
0.00181877
0.00151222
0.00138174
0.00150922
0.00176879
0.00210729
0.00241272
0.00264716
0.00281017
-0.000458479
-0.000310767
-0.000237849
-0.000190861
-0.000228358
-0.000244117
-0.000305474
-0.000352361
-0.000507818
-0.000704017
-0.0011247
-0.00163058
-0.00205854
-0.00228682
-0.00231026
-0.00212776
-0.00177034
-0.00136233
-0.000981238
-0.000674018
0.00202397
0.00212561
0.00217621
0.00222198
0.00221826
0.00220814
0.00212529
0.00205372
0.00185816
0.00163408
0.00112023
0.000583372
0.000208054
0.000148046
0.00036346
0.00072142
0.00109965
0.00142722
0.00169102
0.00188914
6.05966e-05
0.00010463
0.000108756
0.000112971
9.06205e-05
0.000112634
8.22698e-05
7.50193e-05
-7.18437e-05
-0.000282389
-0.000890823
-0.00153915
-0.00194168
-0.00199564
-0.00169858
-0.00124486
-0.000786623
-0.000429708
-0.000177275
-2.0999e-05
0.00125563
0.00132578
0.00135852
0.00139253
0.00136802
0.00135414
0.0012771
0.00121115
0.00102299
0.000771182
0.000115623
-0.000489312
-0.000756228
-0.000571586
-0.000172565
0.000240192
0.000601424
0.000855462
0.00104132
0.0011686
0.000173687
0.000183535
0.000171118
0.000172233
0.000164744
0.000189013
0.00016913
0.000164327
4.10652e-05
-0.000181157
-0.000863541
-0.00150349
-0.00171806
-0.0014556
-0.000968368
-0.00055223
-0.000224457
-3.1127e-05
9.06429e-05
0.000150514
0.000743255
0.000783414
0.000799716
0.000815288
0.000792494
0.000777212
0.000717312
0.000662214
0.00051801
0.000290216
-0.000337047
-0.000846819
-0.000855849
-0.000556602
-0.000132743
0.000166519
0.000398455
0.00053033
0.000630758
0.000695318
0.000178954
0.00018273
0.000172483
0.000178198
0.000172834
0.000191151
0.000176504
0.000180487
9.86781e-05
-4.70385e-05
-0.000623299
-0.00115656
-0.00109725
-0.000794319
-0.000407332
-0.000171882
6.48255e-06
8.88076e-05
0.000147282
0.000170179
0.000436405
0.000457362
0.000463398
0.000469548
0.000450401
0.000437394
0.000393523
0.000357487
0.000265779
0.000139284
-0.000326201
-0.000619696
-0.000506542
-0.000239498
3.33286e-05
0.00017061
0.000283787
0.000332722
0.000382574
0.000411324
0.000155813
0.000160457
0.000155543
0.00016287
0.000158161
0.000173616
0.000164374
0.00019079
0.000156106
0.000180864
-0.000199682
-0.000575128
-0.000489019
-0.000327911
-0.000117475
-2.51419e-05
6.68317e-05
9.94435e-05
0.000135207
0.000147571
0.000262193
0.000272843
0.000273683
0.000276041
0.000259808
0.0002497
0.00021668
0.000197978
0.000150867
0.000142265
-8.04646e-05
-0.000197999
-0.000125485
-1.02991e-05
0.00011179
0.000143364
0.000195111
0.000207768
0.000235685
0.000248275
0.000127487
0.000133265
0.000132111
0.000139169
0.000135273
0.000148758
0.000144368
0.00018532
0.00019164
0.000365545
0.000228875
-0.000146372
-0.000154552
-0.000139829
-4.82712e-05
-1.04178e-05
5.46683e-05
7.58874e-05
0.000106717
0.00011765
0.000166125
0.00017184
0.000170668
0.000171364
0.000157724
0.000149323
0.000122299
0.000109772
7.8046e-05
0.000145063
0.000251632
8.31881e-06
-2.2966e-05
-1.51028e-05
5.42291e-05
6.77325e-05
0.000114935
0.00012578
0.000149104
0.000156811
0.000102642
0.000108135
0.000108616
0.000114243
0.000110936
0.000120319
0.000116524
0.000141297
0.000130442
0.000185707
0.000108643
-6.10614e-05
-5.50071e-05
-7.63013e-05
-1.48595e-05
-4.38214e-06
4.27206e-05
5.72853e-05
8.33876e-05
9.28802e-05
0.000114282
0.000117256
0.000115592
0.000115528
0.000104535
9.7341e-05
7.62539e-05
6.32398e-05
4.1398e-05
4.32891e-05
7.52956e-05
4.56779e-06
2.90893e-05
2.15062e-05
6.15514e-05
5.81911e-05
8.66997e-05
8.85889e-05
0.000104369
0.000108063
8.37842e-05
8.79436e-05
8.87372e-05
9.25592e-05
8.95493e-05
9.50827e-05
9.22551e-05
0.000104254
9.6772e-05
0.000106181
6.3407e-05
-2.57686e-05
-1.74708e-05
-4.13665e-05
2.84801e-07
3.53239e-06
3.81688e-05
4.77661e-05
6.82483e-05
7.53959e-05
8.58738e-05
8.72879e-05
8.58168e-05
8.53743e-05
7.68721e-05
7.09781e-05
5.52719e-05
4.32259e-05
2.73609e-05
1.71037e-05
3.10727e-05
8.91039e-06
3.95583e-05
3.09308e-05
5.91558e-05
5.14724e-05
7.03178e-05
6.89078e-05
7.98775e-05
8.14595e-05
7.0613e-05
7.31004e-05
7.37178e-05
7.58912e-05
7.28106e-05
7.55197e-05
7.3066e-05
7.74978e-05
7.37336e-05
7.00409e-05
4.88326e-05
-5.59395e-06
5.00492e-07
-1.95319e-05
9.78101e-06
1.08899e-05
3.66652e-05
4.33028e-05
5.89463e-05
6.37659e-05
6.98019e-05
7.01764e-05
6.92052e-05
6.85585e-05
6.21179e-05
5.76259e-05
4.63624e-05
3.61362e-05
2.57576e-05
1.4178e-05
2.27194e-05
1.40086e-05
4.07044e-05
3.28606e-05
5.37822e-05
4.64081e-05
5.97319e-05
5.78499e-05
6.58576e-05
6.64186e-05
6.19893e-05
6.27688e-05
6.32906e-05
6.40868e-05
6.09289e-05
6.17071e-05
5.92113e-05
5.91754e-05
5.81641e-05
5.01565e-05
4.18008e-05
6.18054e-06
1.24195e-05
-2.86021e-06
1.84732e-05
1.86695e-05
3.74333e-05
4.21006e-05
5.36413e-05
5.6493e-05
6.06637e-05
5.99128e-05
5.96091e-05
5.86954e-05
5.35801e-05
5.0303e-05
4.3112e-05
3.41085e-05
2.87443e-05
1.76145e-05
2.47551e-05
1.81911e-05
3.95095e-05
3.20073e-05
4.83964e-05
4.28907e-05
5.26278e-05
5.15256e-05
5.75886e-05
5.74127e-05
5.66464e-05
5.57334e-05
5.65168e-05
5.63164e-05
5.29272e-05
5.2705e-05
5.01663e-05
4.71823e-05
4.82452e-05
3.88353e-05
3.7922e-05
1.37758e-05
2.15597e-05
1.00084e-05
2.60545e-05
2.59912e-05
3.90319e-05
4.25644e-05
5.0835e-05
5.19606e-05
5.53971e-05
5.3402e-05
5.39169e-05
5.25319e-05
4.82597e-05
4.63679e-05
4.1428e-05
3.35277e-05
3.28042e-05
2.1132e-05
2.93018e-05
2.07488e-05
3.82452e-05
3.11399e-05
4.40331e-05
4.07873e-05
4.79299e-05
4.80676e-05
5.25519e-05
5.17955e-05
5.32387e-05
5.10899e-05
5.25289e-05
5.11294e-05
4.79204e-05
4.7289e-05
4.51531e-05
3.974e-05
4.27086e-05
3.23514e-05
3.67208e-05
1.90317e-05
2.86277e-05
1.88229e-05
3.18792e-05
3.18153e-05
4.06522e-05
4.37829e-05
4.91344e-05
4.92544e-05
5.25199e-05
4.85815e-05
5.0597e-05
4.86875e-05
4.45274e-05
4.37256e-05
4.04057e-05
3.27216e-05
3.58181e-05
2.34294e-05
3.31915e-05
2.24627e-05
3.79305e-05
3.04848e-05
4.145e-05
4.00868e-05
4.45505e-05
4.64232e-05
4.96142e-05
4.80498e-05
5.19148e-05
4.76637e-05
5.04081e-05
4.77702e-05
4.41607e-05
4.48607e-05
4.2136e-05
3.51554e-05
4.13194e-05
2.82045e-05
3.78206e-05
2.15434e-05
3.38682e-05
2.48306e-05
3.55054e-05
3.65168e-05
4.15421e-05
4.52252e-05
4.80344e-05
4.69339e-05
5.0442e-05
4.50109e-05
4.89018e-05
4.56709e-05
4.18364e-05
4.22644e-05
3.99238e-05
3.07596e-05
3.81268e-05
2.37113e-05
3.64503e-05
2.29523e-05
3.87647e-05
2.951e-05
3.98424e-05
3.99333e-05
4.23107e-05
4.59937e-05
4.7224e-05
4.55047e-05
5.16535e-05
4.39672e-05
4.96186e-05
4.62599e-05
4.10983e-05
4.33089e-05
4.07715e-05
3.18817e-05
4.16507e-05
2.54768e-05
3.97859e-05
2.26551e-05
3.78045e-05
2.78218e-05
3.81501e-05
4.00528e-05
4.07903e-05
4.67102e-05
4.78755e-05
4.48024e-05
4.98044e-05
4.13087e-05
4.81428e-05
4.36391e-05
3.85565e-05
4.21169e-05
3.92373e-05
2.80947e-05
4.07093e-05
2.15404e-05
3.98028e-05
2.14094e-05
3.97712e-05
2.82908e-05
3.8317e-05
4.06579e-05
3.9843e-05
4.61816e-05
4.54145e-05
4.23629e-05
5.15853e-05
4.10034e-05
4.98908e-05
4.43413e-05
3.82406e-05
4.34695e-05
3.98913e-05
2.81279e-05
4.33035e-05
2.23737e-05
4.25767e-05
2.18411e-05
4.13466e-05
2.82662e-05
3.90647e-05
4.23803e-05
3.98029e-05
4.83191e-05
4.66795e-05
4.25948e-05
5.03239e-05
3.62012e-05
4.84424e-05
4.24894e-05
3.3595e-05
4.31083e-05
3.84709e-05
2.37121e-05
4.32042e-05
1.75602e-05
4.28647e-05
1.81869e-05
4.13933e-05
2.55372e-05
3.649e-05
4.21219e-05
3.58011e-05
4.68756e-05
4.40725e-05
3.77589e-05
5.20004e-05
3.67555e-05
5.11409e-05
4.26657e-05
3.42834e-05
4.50335e-05
3.8872e-05
2.30862e-05
4.64912e-05
1.72745e-05
4.64523e-05
1.81396e-05
4.45535e-05
2.59868e-05
3.8842e-05
4.41568e-05
3.68701e-05
5.02157e-05
4.50779e-05
3.92753e-05
5.08556e-05
2.97481e-05
5.03978e-05
4.01938e-05
2.69539e-05
4.56665e-05
3.72691e-05
1.62212e-05
4.6844e-05
1.03042e-05
4.68132e-05
1.17537e-05
4.37485e-05
1.99925e-05
3.39295e-05
4.31215e-05
3.0232e-05
4.86224e-05
4.11744e-05
3.18116e-05
5.34636e-05
3.03199e-05
5.36174e-05
4.0473e-05
2.72391e-05
4.8195e-05
3.72443e-05
1.58852e-05
5.02539e-05
9.89403e-06
5.04661e-05
1.16652e-05
4.73845e-05
2.01694e-05
3.73156e-05
4.61816e-05
3.12098e-05
5.2531e-05
4.24396e-05
3.3145e-05
5.28019e-05
1.78482e-05
5.55109e-05
3.77853e-05
1.41225e-05
5.20002e-05
3.56023e-05
1.71151e-06
5.36691e-05
-3.46889e-06
5.35318e-05
-1.14731e-06
4.83582e-05
8.06679e-06
2.94465e-05
4.57288e-05
1.90378e-05
5.27092e-05
3.75481e-05
2.09048e-05
5.48606e-05
1.95002e-05
5.81956e-05
3.622e-05
1.5591e-05
5.43557e-05
3.37672e-05
3.10073e-06
5.56344e-05
-2.68141e-06
5.55043e-05
-1.98958e-07
5.05497e-05
8.93377e-06
3.35701e-05
4.72919e-05
2.07062e-05
5.58989e-05
3.69259e-05
2.30789e-05
5.81359e-05
-5.05805e-06
6.85119e-05
3.11221e-05
-1.3266e-05
6.8428e-05
3.03266e-05
-2.79107e-05
6.69479e-05
-3.0732e-05
6.56341e-05
-2.72733e-05
5.74339e-05
-1.74173e-05
2.13839e-05
5.15639e-05
-3.39372e-06
6.32282e-05
2.89525e-05
-1.64271e-06
-0.0135273
-0.0129783
-0.0125291
-0.0122014
-0.0120095
-0.0119831
-0.0121383
-0.0124537
-0.0129183
-0.0134963
-0.0141515
-0.0148153
-0.0154066
-0.015831
-0.0160244
-0.0159948
-0.0157539
-0.0153229
-0.0147603
-0.0141391
0.00193494
0.00199184
0.00192561
0.00179121
0.00163394
0.0015188
0.00138265
0.00120782
0.000973071
0.000688165
0.000342045
-2.49214e-05
-0.000336726
-0.000510266
-0.000465212
-0.000152082
0.000326094
0.000860139
0.00135142
0.00172305
-0.00274579
-0.00243794
-0.00222157
-0.00208651
-0.00207242
-0.00217988
-0.00237671
-0.00261655
-0.00295115
-0.0033486
-0.00384828
-0.00437047
-0.00481258
-0.00505093
-0.00507882
-0.00489686
-0.00453487
-0.00405787
-0.00356745
-0.00312144
0.0033814
0.0034589
0.0034775
0.00348027
0.00345768
0.00341362
0.00328797
0.00313252
0.00285424
0.00251807
0.00200342
0.00145043
0.00102333
0.000887239
0.00113681
0.00158282
0.00213068
0.00262029
0.00299102
0.00323937
-0.000285098
-0.000126039
-5.49444e-05
-1.86191e-05
-7.94495e-05
-0.000120555
-0.000230336
-0.000343863
-0.000610763
-0.000961482
-0.00160171
-0.0023151
-0.00284442
-0.00304766
-0.00291545
-0.00251683
-0.00195109
-0.00138192
-0.000895911
-0.000529253
0.00247738
0.00259663
0.00265271
0.00269938
0.0026765
0.00264307
0.00251166
0.00237469
0.0020638
0.00167585
0.00091829
0.000183417
-0.000249273
-0.000194249
0.000213176
0.000770562
0.00130766
0.0017429
0.00207514
0.00231619
0.000290752
0.000348564
0.000355599
0.000357931
0.000326094
0.00033431
0.000266352
0.000205515
-5.07041e-05
-0.000428794
-0.00130533
-0.00214835
-0.00257482
-0.00248116
-0.00197853
-0.00134302
-0.000752323
-0.000311115
-3.96678e-06
0.00018765
0.00158444
0.00167307
0.00171293
0.00174949
0.0017125
0.00168258
0.00156653
0.00144645
0.00115047
0.000728686
-0.000200106
-0.000970579
-0.00119994
-0.000857387
-0.000266302
0.000288574
0.000752096
0.00107324
0.00130877
0.00147208
0.000370545
0.000391988
0.000381773
0.000385273
0.000369763
0.000385488
0.000336287
0.00028928
7.14055e-05
-0.000312682
-0.00126913
-0.002058
-0.00219911
-0.00176748
-0.00110732
-0.000574891
-0.000163489
8.28127e-05
0.00024405
0.00033045
0.000967143
0.00101996
0.00104022
0.00105719
0.0010252
0.000999306
0.000910424
0.000815256
0.000585484
0.000209092
-0.00067448
-0.00129078
-0.00120045
-0.000747278
-0.00018289
0.000203724
0.00050244
0.000677145
0.000812666
0.000901811
0.00032939
0.000341232
0.000332179
0.000340324
0.000328688
0.000341986
0.000306519
0.000283431
0.000133231
-0.000135312
-0.000946138
-0.00156672
-0.00139549
-0.000962616
-0.000461087
-0.000160882
7.01854e-05
0.000183938
0.000269149
0.000309123
0.000586484
0.000615256
0.000622948
0.000630221
0.000603961
0.000584481
0.00052093
0.000460859
0.00031329
8.6927e-05
-0.000575962
-0.000910175
-0.000694666
-0.000325154
3.1682e-05
0.000211573
0.000364149
0.000435649
0.000507577
0.00055067
0.000266117
0.000276455
0.000272325
0.000281803
0.000272336
0.000285857
0.000263618
0.000279612
0.000206607
0.000171414
-0.000373924
-0.000792403
-0.000621409
-0.000393032
-0.000119405
5.21733e-07
0.000124014
0.000173079
0.000226798
0.000249821
0.000364232
0.000379855
0.000381281
0.000384683
0.000362902
0.000349235
0.000303375
0.000274167
0.000198478
0.000146817
-0.000189853
-0.000322332
-0.000185557
-2.68818e-05
0.000136432
0.00018184
0.000256474
0.000279828
0.000322284
0.000343297
0.000207952
0.000217949
0.000217412
0.000226339
0.000218817
0.000232256
0.000220283
0.000262014
0.00025404
0.000423623
0.000205042
-0.000227904
-0.000194043
-0.000162107
-3.6693e-05
1.11029e-05
9.82982e-05
0.000129234
0.000173711
0.000191944
0.000238135
0.00024723
0.000246225
0.00024782
0.000229719
0.000219237
0.000183073
0.000166663
0.000120642
0.000188021
0.000272716
-3.08682e-05
-4.12439e-05
-2.51569e-05
7.11147e-05
9.17234e-05
0.000157787
0.000175663
0.000210356
0.000223687
0.0001627
0.000171289
0.000172205
0.000179289
0.000173048
0.000182685
0.000173557
0.00019989
0.000179831
0.000239154
0.000132111
-8.80807e-05
-6.91097e-05
-9.18601e-05
-6.24504e-06
9.32004e-06
7.46968e-05
9.61706e-05
0.000133321
0.000148078
0.000167964
0.00017323
0.000171554
0.000172157
0.000157539
0.000148828
0.000120818
0.000104877
7.37121e-05
7.40911e-05
9.73917e-05
-5.63983e-06
3.07013e-05
2.03722e-05
7.89385e-05
7.74033e-05
0.000120049
0.000126021
0.000150481
0.000157899
0.000130613
0.000136876
0.0001379
0.000142702
0.0001372
0.000142734
0.000135875
0.000147991
0.000134449
0.000142444
8.56134e-05
-3.37902e-05
-1.73102e-05
-4.70652e-05
1.15454e-05
1.66346e-05
6.49955e-05
7.88817e-05
0.000107797
0.000118507
0.00012842
0.00013128
0.000129718
0.000129676
0.000118222
0.000111085
9.01525e-05
7.51963e-05
5.28835e-05
3.85456e-05
4.83404e-05
9.5801e-06
5.01806e-05
3.6688e-05
7.82166e-05
6.99134e-05
9.90309e-05
9.97459e-05
0.000117172
0.00012111
0.000109121
0.000112843
0.000113539
0.000116239
0.00011095
0.000113375
0.000107743
0.000111149
0.0001035
9.60394e-05
6.81751e-05
-4.55183e-06
8.1175e-06
-1.77969e-05
2.39289e-05
2.53099e-05
6.12364e-05
7.04633e-05
9.2384e-05
9.94505e-05
0.000105581
0.000106682
0.000105628
0.000105111
9.62352e-05
9.07227e-05
7.55802e-05
6.25246e-05
4.80551e-05
3.17183e-05
3.88015e-05
2.03329e-05
5.54172e-05
4.2819e-05
7.36663e-05
6.49935e-05
8.58914e-05
8.51859e-05
9.79974e-05
9.99641e-05
9.53951e-05
9.66239e-05
9.7198e-05
9.81128e-05
9.29478e-05
9.32688e-05
8.82251e-05
8.64474e-05
8.32468e-05
7.08268e-05
6.00097e-05
1.25782e-05
2.4647e-05
4.37863e-06
3.50776e-05
3.49488e-05
6.11354e-05
6.74385e-05
8.35708e-05
8.76901e-05
9.23952e-05
9.16722e-05
9.14076e-05
9.03375e-05
8.31169e-05
7.90417e-05
6.90701e-05
5.72806e-05
4.98321e-05
3.39183e-05
4.14934e-05
2.79704e-05
5.63802e-05
4.4627e-05
6.87422e-05
6.20609e-05
7.73922e-05
7.7137e-05
8.67516e-05
8.72654e-05
8.70139e-05
8.57944e-05
8.67775e-05
8.63279e-05
8.10431e-05
8.03705e-05
7.57789e-05
7.05461e-05
7.08808e-05
5.68515e-05
5.61628e-05
2.36803e-05
3.70484e-05
2.13101e-05
4.46377e-05
4.41714e-05
6.25008e-05
6.72522e-05
7.8799e-05
8.04365e-05
8.47631e-05
8.20764e-05
8.29106e-05
8.10329e-05
7.4843e-05
7.24629e-05
6.54523e-05
5.47226e-05
5.36974e-05
3.7084e-05
4.73082e-05
3.27334e-05
5.65963e-05
4.56633e-05
6.47846e-05
6.08022e-05
7.19763e-05
7.30074e-05
8.00117e-05
7.93808e-05
8.18475e-05
7.86394e-05
8.06514e-05
7.85791e-05
7.35435e-05
7.26566e-05
6.88655e-05
6.07048e-05
6.43632e-05
4.9023e-05
5.57125e-05
3.12672e-05
4.65715e-05
3.29328e-05
5.19454e-05
5.16726e-05
6.41068e-05
6.84583e-05
7.59767e-05
7.60449e-05
8.05957e-05
7.50808e-05
7.79784e-05
7.51772e-05
6.90972e-05
6.8237e-05
6.32884e-05
5.24915e-05
5.69764e-05
3.91423e-05
5.25527e-05
3.58235e-05
5.75818e-05
4.63619e-05
6.2652e-05
6.10886e-05
6.81595e-05
7.1302e-05
7.61049e-05
7.41443e-05
7.96592e-05
7.33767e-05
7.73864e-05
7.35744e-05
6.80158e-05
6.90336e-05
6.47876e-05
5.44844e-05
6.30303e-05
4.39854e-05
5.79986e-05
3.50532e-05
5.37182e-05
4.07462e-05
5.65541e-05
5.78148e-05
6.49086e-05
7.02239e-05
7.41974e-05
7.24979e-05
7.7837e-05
6.97916e-05
7.54809e-05
7.08006e-05
6.488e-05
6.59521e-05
6.21596e-05
4.91928e-05
5.98707e-05
3.88768e-05
5.71895e-05
3.69058e-05
5.9673e-05
4.61384e-05
6.14024e-05
6.18818e-05
6.55014e-05
7.11579e-05
7.30494e-05
7.04562e-05
7.90743e-05
6.7996e-05
7.61303e-05
7.10471e-05
6.34674e-05
6.69304e-05
6.28586e-05
4.97764e-05
6.39688e-05
4.03222e-05
6.13373e-05
3.65632e-05
5.91986e-05
4.45544e-05
5.98068e-05
6.25447e-05
6.37164e-05
7.2209e-05
7.36148e-05
6.92537e-05
7.69993e-05
6.43968e-05
7.44734e-05
6.78116e-05
6.0056e-05
6.56154e-05
6.102e-05
4.50208e-05
6.33669e-05
3.55649e-05
6.20146e-05
3.50595e-05
6.18337e-05
4.49967e-05
5.99598e-05
6.35046e-05
6.23135e-05
7.18053e-05
7.06662e-05
6.60462e-05
7.89942e-05
6.33245e-05
7.64638e-05
6.82635e-05
5.90019e-05
6.71976e-05
6.15624e-05
4.42654e-05
6.66311e-05
3.57675e-05
6.5662e-05
3.51646e-05
6.41197e-05
4.48374e-05
6.08242e-05
6.58318e-05
6.19074e-05
7.44489e-05
7.185e-05
6.57271e-05
7.76537e-05
5.72134e-05
7.50282e-05
6.58894e-05
5.30997e-05
6.70198e-05
5.98203e-05
3.8541e-05
6.70516e-05
2.96743e-05
6.66431e-05
3.05555e-05
6.4615e-05
4.13701e-05
5.78199e-05
6.58023e-05
5.69133e-05
7.31033e-05
6.86494e-05
5.97085e-05
7.96321e-05
5.68438e-05
7.82873e-05
6.57413e-05
5.28662e-05
6.95045e-05
6.0049e-05
3.67288e-05
7.1263e-05
2.82727e-05
7.13036e-05
2.96611e-05
6.86348e-05
4.12291e-05
6.02218e-05
6.84091e-05
5.73748e-05
7.71482e-05
6.94179e-05
6.05355e-05
7.84871e-05
4.80163e-05
7.7858e-05
6.262e-05
4.36682e-05
7.07056e-05
5.80304e-05
2.79006e-05
7.23273e-05
1.93427e-05
7.24301e-05
2.15326e-05
6.82028e-05
3.36624e-05
5.4455e-05
6.74873e-05
4.91155e-05
7.57246e-05
6.46077e-05
5.13174e-05
8.15909e-05
4.72554e-05
8.19789e-05
6.2477e-05
4.24902e-05
7.42126e-05
5.76744e-05
2.58553e-05
7.68974e-05
1.72632e-05
7.73162e-05
1.99875e-05
7.28046e-05
3.25799e-05
5.77509e-05
7.12362e-05
4.8987e-05
8.05529e-05
6.54686e-05
5.15237e-05
8.10248e-05
3.20667e-05
8.47364e-05
5.90067e-05
2.65021e-05
7.92972e-05
5.55037e-05
8.52476e-06
8.15169e-05
8.53276e-07
8.15194e-05
4.30525e-06
7.43625e-05
1.77645e-05
4.84965e-05
7.0933e-05
3.42256e-05
8.12036e-05
5.93376e-05
3.67032e-05
8.36218e-05
3.21598e-05
8.8587e-05
5.67023e-05
2.61643e-05
8.30275e-05
5.30198e-05
7.88744e-06
8.47082e-05
-3.5046e-07
8.46908e-05
3.40942e-06
7.74727e-05
1.69029e-05
5.24248e-05
7.31005e-05
3.44405e-05
8.54488e-05
5.79337e-05
3.74649e-05
8.72232e-05
4.29534e-06
0.000100641
5.06107e-05
-6.50055e-06
9.95032e-05
4.89327e-05
-2.72313e-05
9.79297e-05
-3.21955e-05
9.65358e-05
-2.73076e-05
8.53698e-05
-1.30471e-05
3.84726e-05
7.79184e-05
7.13904e-06
9.38505e-05
4.83568e-05
9.54903e-06
-0.014947
-0.0143219
-0.0138081
-0.0134327
-0.0132189
-0.0132028
-0.0133918
-0.013764
-0.0143055
-0.0149731
-0.0157225
-0.0164742
-0.0171363
-0.0176046
-0.0178112
-0.0177643
-0.0174788
-0.0169833
-0.0163438
-0.0156404
0.00141641
0.00152527
0.00149602
0.00138264
0.00123553
0.001112
0.000935649
0.000703479
0.000393365
2.12775e-05
-0.000418314
-0.000873151
-0.0012526
-0.00146131
-0.00140858
-0.00105258
-0.000506634
0.000110192
0.000686981
0.00113779
-0.00310388
-0.00274766
-0.00250809
-0.00236957
-0.00237989
-0.00252097
-0.00276559