/*--------------------------------*- C++ -*----------------------------------*\
| =========                 |                                                 |
| \\      /  F ield         | OpenFOAM: The Open Source CFD Toolbox           |
|  \\    /   O peration     | Version:  2.4.0                                 |
|   \\  /    A nd           | Web:      www.OpenFOAM.org                      |
|    \\/     M anipulation  |                                                 |
\*---------------------------------------------------------------------------*/
FoamFile
{
    version     2.0;
    format      ascii;
    class       volScalarField;
    location    "890";
    object      p;
}
// * * * * * * * * * * * * * * * * * * * * * * * * * * * * * * * * * * * * * //

dimensions      [0 2 -2 0 0 0 0];

internalField   nonuniform List<scalar> 
283312
(
-0.0062698
-0.00632803
-0.00656757
-0.00690845
-0.00726269
-0.0075611
-0.00779554
-0.00796047
-0.00808802
-0.00820148
-0.00832088
-0.00843275
-0.00850504
-0.00848202
-0.00833057
-0.00805785
-0.00767464
-0.00721795
-0.00676918
-0.00642669
0.00215305
0.00164906
0.00122071
0.000949313
0.000848019
0.000911851
0.00105347
0.00119346
0.00130361
0.00139133
0.00145891
0.00153808
0.00166687
0.00186793
0.00215451
0.0025256
0.0028428
0.00299606
0.00292138
0.00261718
-0.00230084
-0.00215176
-0.00193005
-0.0016911
-0.00149981
-0.00140383
-0.00138657
-0.00139424
-0.00144487
-0.00148831
-0.00152027
-0.00149986
-0.00142785
-0.00132603
-0.00127674
-0.00137921
-0.00161513
-0.00190579
-0.00216622
-0.00230979
0.00148386
0.0016553
0.00179834
0.00191274
0.00199556
0.00206396
0.0020705
0.0020764
0.0020425
0.00205234
0.00206871
0.00211617
0.00214706
0.00210896
0.00198652
0.00174996
0.00150256
0.00131968
0.00126417
0.00133653
-0.000744081
-0.000546446
-0.000430242
-0.000352515
-0.000349744
-0.000337615
-0.000349765
-0.000336811
-0.000367569
-0.000345712
-0.000356156
-0.00041203
-0.000585786
-0.000895917
-0.0013141
-0.00165024
-0.00174219
-0.00160444
-0.00132281
-0.00100903
0.0012049
0.00131408
0.00137169
0.0014171
0.0014307
0.00143789
0.00140325
0.00138992
0.00132513
0.00133393
0.00127649
0.00115179
0.000879318
0.000526151
0.000265094
0.000194651
0.000321347
0.000562122
0.000825891
0.00104856
-0.000150011
-0.000110701
-0.000103957
-9.83361e-05
-0.000109738
-8.47676e-05
-8.5282e-05
-5.68182e-05
-8.85973e-05
-6.48366e-05
-0.000182349
-0.000455259
-0.000865873
-0.00126904
-0.00140014
-0.00124847
-0.000936778
-0.000624542
-0.000382348
-0.000229355
0.000764045
0.000812925
0.00083631
0.000861093
0.0008493
0.000845617
0.000807985
0.000787508
0.000718449
0.000707509
0.000546893
0.000231523
-0.000173218
-0.000362322
-0.000309442
-7.78943e-05
0.000206562
0.000433313
0.000595534
0.000699041
1.35454e-07
1.74457e-06
-9.24013e-06
-1.09299e-05
-1.23731e-05
9.55768e-06
1.14047e-05
3.13317e-05
3.49767e-06
6.6051e-06
-0.000188951
-0.000597244
-0.00100268
-0.00108577
-0.000870736
-0.000579578
-0.000314752
-0.000150331
-5.41812e-05
-1.20393e-05
0.00044192
0.000466409
0.000477133
0.000487564
0.000474696
0.00046628
0.000435831
0.000413488
0.000360102
0.000342701
0.00016146
-0.00021037
-0.000462739
-0.000448544
-0.000215785
9.74601e-06
0.000194599
0.000300047
0.00037089
0.00041253
4.42299e-05
4.2142e-05
3.32199e-05
3.50462e-05
3.4291e-05
4.9348e-05
4.97056e-05
6.60118e-05
4.88456e-05
7.34411e-05
-0.000104186
-0.000535004
-0.000716972
-0.000634402
-0.000390604
-0.000205293
-6.71569e-05
-4.11704e-06
3.2817e-05
4.34458e-05
0.000251188
0.000262906
0.000266687
0.000269808
0.000258625
0.000249853
0.000226249
0.000208644
0.000173239
0.000192177
5.50954e-05
-0.00022775
-0.000332367
-0.000226203
-4.54265e-05
6.89705e-05
0.000154734
0.000191216
0.000221413
0.000237343
5.52039e-05
5.5136e-05
5.06223e-05
5.40524e-05
5.28563e-05
6.41198e-05
6.37583e-05
8.7313e-05
8.39359e-05
0.00019027
7.55036e-05
-0.000272265
-0.000356342
-0.000290636
-0.00014501
-6.32325e-05
4.77818e-06
2.88372e-05
4.88256e-05
5.33994e-05
0.000145656
0.000150815
0.000151002
0.000151286
0.000141501
0.000133708
0.000114549
0.000102379
8.17196e-05
0.000139065
9.81023e-05
-5.16322e-05
-0.000108763
-5.34806e-05
3.36758e-05
7.06538e-05
0.00010829
0.0001181
0.000133058
0.000138849
5.29583e-05
5.46572e-05
5.31646e-05
5.67083e-05
5.54984e-05
6.44781e-05
6.47684e-05
9.3298e-05
0.000105264
0.000280156
0.000267025
-5.06557e-05
-0.000137032
-0.000139589
-7.50598e-05
-3.4713e-05
1.12371e-05
2.69901e-05
4.41468e-05
4.90273e-05
8.9117e-05
9.1311e-05
9.00935e-05
8.9302e-05
8.09551e-05
7.40747e-05
5.76994e-05
4.70771e-05
2.90056e-05
8.6076e-05
0.000195901
3.7055e-05
-1.94078e-05
-1.94035e-05
2.15379e-05
3.49311e-05
6.34533e-05
7.02503e-05
8.1981e-05
8.50414e-05
4.63846e-05
4.85736e-05
4.84695e-05
5.12991e-05
5.0193e-05
5.6182e-05
5.59809e-05
7.23543e-05
6.84966e-05
0.000106985
6.6469e-05
-3.07772e-05
-4.01422e-05
-5.48685e-05
-2.08968e-05
-1.19106e-05
1.47788e-05
2.35175e-05
3.72811e-05
4.18365e-05
5.95436e-05
6.02872e-05
5.87821e-05
5.76859e-05
5.096e-05
4.50854e-05
3.22853e-05
2.18696e-05
9.77319e-06
9.09336e-06
4.07783e-05
9.83177e-06
1.88968e-05
1.65503e-05
3.63685e-05
3.51595e-05
4.91116e-05
4.92258e-05
5.62371e-05
5.71458e-05
3.95869e-05
4.14069e-05
4.169e-05
4.35384e-05
4.24348e-05
4.58673e-05
4.5815e-05
5.38749e-05
5.14656e-05
5.81535e-05
3.35677e-05
-1.5475e-05
-1.68327e-05
-3.05278e-05
-8.36397e-06
-4.55638e-06
1.45916e-05
2.06584e-05
3.1624e-05
3.53767e-05
4.37976e-05
4.3895e-05
4.26021e-05
4.15074e-05
3.63623e-05
3.16348e-05
2.2142e-05
1.32283e-05
4.4222e-06
-2.43817e-06
1.15557e-05
6.41737e-06
2.27487e-05
2.05364e-05
3.41707e-05
3.02801e-05
3.89029e-05
3.743e-05
4.21049e-05
4.21984e-05
3.41214e-05
3.52211e-05
3.5474e-05
3.64246e-05
3.51147e-05
3.67191e-05
3.64952e-05
3.9768e-05
3.90728e-05
3.78457e-05
2.53902e-05
-5.23304e-06
-6.21053e-06
-1.71479e-05
-1.94388e-06
4.3681e-07
1.47179e-05
1.9283e-05
2.7821e-05
3.05384e-05
3.50637e-05
3.4839e-05
3.39456e-05
3.2967e-05
2.91553e-05
2.55998e-05
1.88311e-05
1.17237e-05
5.84303e-06
-9.16917e-07
6.80731e-06
6.97673e-06
2.1823e-05
1.97562e-05
2.98187e-05
2.60932e-05
3.20272e-05
3.05797e-05
3.39898e-05
3.38452e-05
3.02552e-05
3.05458e-05
3.07474e-05
3.09611e-05
2.94888e-05
2.98325e-05
2.91994e-05
2.96648e-05
3.00584e-05
2.6178e-05
2.10645e-05
7.85545e-07
1.0686e-06
-6.9449e-06
3.90322e-06
5.45036e-06
1.58485e-05
1.92376e-05
2.56045e-05
2.73446e-05
3.01486e-05
2.95196e-05
2.90788e-05
2.81553e-05
2.52096e-05
2.26133e-05
1.84068e-05
1.24991e-05
9.31047e-06
3.2339e-06
8.50185e-06
8.23282e-06
2.00091e-05
1.76117e-05
2.55634e-05
2.2896e-05
2.72464e-05
2.64453e-05
2.91236e-05
2.88114e-05
2.77347e-05
2.72063e-05
2.75202e-05
2.72579e-05
2.55556e-05
2.5211e-05
2.42466e-05
2.2878e-05
2.39371e-05
1.92595e-05
1.82226e-05
4.72361e-06
6.7528e-06
9.89815e-07
9.01642e-06
1.00771e-05
1.72712e-05
1.9844e-05
2.44601e-05
2.52724e-05
2.72918e-05
2.61706e-05
2.61937e-05
2.51852e-05
2.28051e-05
2.12053e-05
1.83584e-05
1.35192e-05
1.2852e-05
6.62519e-06
1.15809e-05
9.01767e-06
1.84068e-05
1.58811e-05
2.20741e-05
2.0681e-05
2.39775e-05
2.39814e-05
2.60766e-05
2.56203e-05
2.59871e-05
2.49976e-05
2.55824e-05
2.47121e-05
2.31238e-05
2.24065e-05
2.15319e-05
1.8681e-05
2.02997e-05
1.52307e-05
1.69629e-05
7.57578e-06
1.11371e-05
6.40955e-06
1.29338e-05
1.36542e-05
1.8588e-05
2.06959e-05
2.37138e-05
2.40462e-05
2.56857e-05
2.36323e-05
2.44621e-05
2.33675e-05
2.10905e-05
2.01359e-05
1.83249e-05
1.39513e-05
1.51971e-05
8.86363e-06
1.39799e-05
9.66654e-06
1.75659e-05
1.46412e-05
1.99073e-05
1.95018e-05
2.15967e-05
2.26076e-05
2.4278e-05
2.34729e-05
2.53573e-05
2.33726e-05
2.45189e-05
2.30609e-05
2.12422e-05
2.12586e-05
1.98685e-05
1.62315e-05
1.92494e-05
1.27243e-05
1.72017e-05
8.9278e-06
1.4294e-05
1.01884e-05
1.53474e-05
1.6482e-05
1.93825e-05
2.15417e-05
2.3207e-05
2.28779e-05
2.43533e-05
2.18373e-05
2.35262e-05
2.18109e-05
1.99121e-05
1.95134e-05
1.84014e-05
1.33819e-05
1.67229e-05
9.6447e-06
1.57959e-05
9.84242e-06
1.7583e-05
1.35192e-05
1.85188e-05
1.87835e-05
2.0123e-05
2.20017e-05
2.27506e-05
2.20931e-05
2.52462e-05
2.14807e-05
2.40908e-05
2.24893e-05
1.97618e-05
2.0384e-05
1.91916e-05
1.46755e-05
1.91729e-05
1.13477e-05
1.79594e-05
9.72172e-06
1.65636e-05
1.21727e-05
1.71583e-05
1.85362e-05
1.91128e-05
2.23194e-05
2.33082e-05
2.18297e-05
2.38645e-05
1.99622e-05
2.29891e-05
2.07937e-05
1.83053e-05
1.95056e-05
1.81949e-05
1.23462e-05
1.82124e-05
8.83794e-06
1.75627e-05
8.97712e-06
1.7731e-05
1.26211e-05
1.73314e-05
1.87804e-05
1.86728e-05
2.17812e-05
2.16488e-05
2.03576e-05
2.50881e-05
2.02223e-05
2.41767e-05
2.15142e-05
1.85511e-05
2.04117e-05
1.88144e-05
1.29414e-05
1.98371e-05
9.99954e-06
1.92116e-05
9.6183e-06
1.85487e-05
1.27532e-05
1.78827e-05
1.97565e-05
1.89123e-05
2.31183e-05
2.27037e-05
2.08913e-05
2.40706e-05
1.72672e-05
2.29559e-05
2.03818e-05
1.56969e-05
1.99658e-05
1.79253e-05
1.03423e-05
1.93956e-05
7.09799e-06
1.8972e-05
7.42089e-06
1.82883e-05
1.11238e-05
1.61227e-05
1.93845e-05
1.64096e-05
2.18542e-05
2.101e-05
1.78054e-05
2.51529e-05
1.83458e-05
2.46811e-05
2.07504e-05
1.68883e-05
2.10919e-05
1.83923e-05
1.06944e-05
2.13678e-05
7.71491e-06
2.10966e-05
8.04782e-06
2.02285e-05
1.19523e-05
1.79763e-05
2.06225e-05
1.77105e-05
2.40066e-05
2.1981e-05
1.9477e-05
2.4156e-05
1.40266e-05
2.37933e-05
1.9236e-05
1.23527e-05
2.11387e-05
1.7437e-05
6.62518e-06
2.11071e-05
3.59156e-06
2.0815e-05
4.23948e-06
1.92916e-05
8.31639e-06
1.4617e-05
1.9685e-05
1.35663e-05
2.25459e-05
1.94876e-05
1.47198e-05
2.58201e-05
1.54952e-05
2.56573e-05
1.97798e-05
1.36872e-05
2.23954e-05
1.76892e-05
7.6555e-06
2.29514e-05
4.57544e-06
2.2819e-05
5.33113e-06
2.14782e-05
9.46305e-06
1.73874e-05
2.16347e-05
1.52231e-05
2.49634e-05
2.08108e-05
1.66266e-05
2.50887e-05
7.58468e-06
2.63957e-05
1.82533e-05
5.38921e-06
2.43558e-05
1.68447e-05
-1.2517e-06
2.46738e-05
-3.72887e-06
2.43282e-05
-2.66738e-06
2.17187e-05
1.89417e-06
1.20258e-05
2.10873e-05
7.47135e-06
2.46144e-05
1.7827e-05
8.76303e-06
2.62145e-05
1.03381e-05
2.75046e-05
1.76161e-05
8.19858e-06
2.5009e-05
1.59317e-05
1.69197e-06
2.51565e-05
-1.26904e-06
2.48629e-05
-2.0076e-07
2.26544e-05
4.18487e-06
1.55157e-05
2.18275e-05
1.0164e-05
2.62348e-05
1.79923e-05
1.17831e-05
2.8283e-05
-6.76445e-06
3.40718e-05
1.44177e-05
-1.19753e-05
3.40251e-05
1.38325e-05
-1.9937e-05
3.23842e-05
-2.06821e-05
3.13142e-05
-1.89725e-05
2.70518e-05
-1.40782e-05
6.78631e-06
2.45745e-05
-6.66866e-06
3.08992e-05
1.29156e-05
-5.60515e-06
-0.010987
-0.0105946
-0.0102888
-0.0100775
-0.00996113
-0.00994882
-0.0100699
-0.0103048
-0.0106477
-0.0110745
-0.0115626
-0.0120611
-0.0125068
-0.0128216
-0.0129549
-0.0129172
-0.0127165
-0.0123685
-0.0119231
-0.0114436
0.00232619
0.00228028
0.0021492
0.00198781
0.00183381
0.00174399
0.00167495
0.00158983
0.00146775
0.00131342
0.00111142
0.000888386
0.000699379
0.000605156
0.00066745
0.000935766
0.00131239
0.00170486
0.00203609
0.00225041
-0.00233645
-0.00210113
-0.00191574
-0.00178009
-0.00173077
-0.00178679
-0.00191449
-0.0020644
-0.00228243
-0.00253856
-0.00287001
-0.00322101
-0.00352361
-0.00369324
-0.0037297
-0.00365454
-0.00346615
-0.0031881
-0.00288644
-0.00259715
0.00291031
0.00297368
0.00299789
0.00301532
0.00302028
0.0030202
0.00295355
0.00287543
0.0027088
0.00251592
0.00218815
0.00181918
0.00151276
0.00138241
0.00150999
0.00176959
0.00210805
0.0024134
0.00264774
0.00281066
-0.000458598
-0.000310913
-0.000238014
-0.000191049
-0.000228566
-0.000244344
-0.000305714
-0.00035262
-0.000508098
-0.000704315
-0.00112501
-0.00163087
-0.00205873
-0.00228685
-0.00231015
-0.00212759
-0.00177022
-0.0013623
-0.00098128
-0.000674108
0.00202444
0.00212607
0.00217665
0.00222241
0.00221868
0.00220856
0.0021257
0.00205413
0.00185856
0.00163446
0.00112054
0.000583594
0.000208296
0.000148399
0.000363956
0.000721989
0.00110023
0.00142778
0.00169154
0.00188963
6.06516e-05
0.000104662
0.000108768
0.000112962
9.06024e-05
0.000112613
8.22499e-05
7.50036e-05
-7.18726e-05
-0.000282449
-0.000891035
-0.00153958
-0.00194216
-0.0019961
-0.00169889
-0.001245
-0.000786642
-0.000429661
-0.000177203
-2.09287e-05
0.00125597
0.00132612
0.00135885
0.00139285
0.00136834
0.00135445
0.0012774
0.00121145
0.00102326
0.000771406
0.000115623
-0.000489584
-0.000756668
-0.000571897
-0.000172676
0.000240297
0.000601668
0.000855778
0.00104167
0.00116895
0.000173774
0.0001836
0.000171167
0.000172267
0.000164776
0.000189049
0.000169172
0.00016438
4.11039e-05
-0.00018116
-0.000863769
-0.00150398
-0.00171875
-0.00145621
-0.000968723
-0.000552354
-0.000224433
-3.10348e-05
9.07548e-05
0.000150618
0.000743466
0.000783623
0.000799924
0.000815491
0.000792692
0.000777407
0.0007175
0.000662402
0.000518172
0.000290332
-0.000337122
-0.000847129
-0.000856259
-0.000556932
-0.000132873
0.00016655
0.00039859
0.000530515
0.000630965
0.000695529
0.000179025
0.000182787
0.00017253
0.000178237
0.000172873
0.000191193
0.000176552
0.000180543
9.87245e-05
-4.7023e-05
-0.000623441
-0.00115689
-0.00109765
-0.000794623
-0.000407473
-0.000171902
6.53636e-06
8.88913e-05
0.000147373
0.000170262
0.000436528
0.000457484
0.000463521
0.000469668
0.000450518
0.000437509
0.000393633
0.000357597
0.000265871
0.000139355
-0.000326248
-0.000619879
-0.000506741
-0.000239634
3.32947e-05
0.000170648
0.000283872
0.000332829
0.000382693
0.000411446
0.000155865
0.000160501
0.000155582
0.000162904
0.000158195
0.000173651
0.000164413
0.000190833
0.000156146
0.000180895
-0.000199748
-0.000575272
-0.000489168
-0.000328008
-0.0001175
-2.51207e-05
6.68819e-05
9.95043e-05
0.00013527
0.000147629
0.000262264
0.000272914
0.000273754
0.00027611
0.000259875
0.000249766
0.000216741
0.000198041
0.000150916
0.000142318
-8.04737e-05
-0.000198065
-0.000125545
-1.03222e-05
0.000111803
0.000143401
0.000195164
0.00020783
0.000235753
0.000248345
0.000127524
0.000133297
0.000132141
0.000139195
0.0001353
0.000148785
0.000144395
0.00018535
0.000191668
0.000365578
0.000228873
-0.000146373
-0.000154566
-0.000139837
-4.82528e-05
-1.0388e-05
5.47073e-05
7.59293e-05
0.00010676
0.00011769
0.000166167
0.000171882
0.000170709
0.000171404
0.000157762
0.00014936
0.000122332
0.000109805
7.80678e-05
0.000145087
0.000251639
8.32898e-06
-2.29404e-05
-1.50755e-05
5.42514e-05
6.77615e-05
0.000114969
0.000125817
0.000149144
0.000156852
0.000102668
0.000108159
0.000108638
0.000114263
0.000110956
0.000120338
0.000116542
0.000141315
0.000130458
0.000185718
0.000108641
-6.10598e-05
-5.50123e-05
-7.62972e-05
-1.48434e-05
-4.36252e-06
4.27458e-05
5.73125e-05
8.34162e-05
9.29074e-05
0.000114308
0.000117281
0.000115618
0.000115552
0.000104558
9.73627e-05
7.62723e-05
6.32576e-05
4.14085e-05
4.32992e-05
7.53011e-05
4.57421e-06
2.91015e-05
2.15209e-05
6.15662e-05
5.8208e-05
8.67199e-05
8.8611e-05
0.000104393
0.000108088
8.38027e-05
8.79605e-05
8.87536e-05
9.25739e-05
8.95638e-05
9.50959e-05
9.22681e-05
0.000104266
9.67819e-05
0.000106188
6.34065e-05
-2.57689e-05
-1.7473e-05
-4.13632e-05
2.93968e-07
3.54519e-06
3.81855e-05
4.77841e-05
6.82676e-05
7.54146e-05
8.58905e-05
8.73039e-05
8.58329e-05
8.53892e-05
7.68865e-05
7.0991e-05
5.52828e-05
4.32354e-05
2.73665e-05
1.71078e-05
3.10764e-05
8.91441e-06
3.95655e-05
3.09388e-05
5.91651e-05
5.14827e-05
7.03306e-05
6.89217e-05
7.98932e-05
8.14755e-05
7.06262e-05
7.31125e-05
7.37296e-05
7.59017e-05
7.28209e-05
7.55286e-05
7.30747e-05
7.75055e-05
7.374e-05
7.00464e-05
4.88335e-05
-5.59453e-06
5.00044e-07
-1.95293e-05
9.78728e-06
1.08984e-05
3.66765e-05
4.3315e-05
5.89597e-05
6.37789e-05
6.98131e-05
7.0187e-05
6.92159e-05
6.85681e-05
6.21273e-05
5.76338e-05
4.63694e-05
3.61414e-05
2.57611e-05
1.41794e-05
2.27215e-05
1.40109e-05
4.0709e-05
3.28653e-05
5.37883e-05
4.64147e-05
5.97405e-05
5.78591e-05
6.58682e-05
6.64293e-05
6.19987e-05
6.27774e-05
6.32991e-05
6.40942e-05
6.09362e-05
6.1713e-05
5.92171e-05
5.918e-05
5.81683e-05
5.01597e-05
4.18022e-05
6.18003e-06
1.242e-05
-2.8584e-06
1.84778e-05
1.86753e-05
3.74413e-05
4.2109e-05
5.36507e-05
5.65022e-05
6.06715e-05
5.99201e-05
5.96165e-05
5.87018e-05
5.35864e-05
5.03079e-05
4.31167e-05
3.41114e-05
2.87468e-05
1.76151e-05
2.47567e-05
1.81923e-05
3.95126e-05
3.20102e-05
4.84007e-05
4.28952e-05
5.26339e-05
5.1532e-05
5.75961e-05
5.74202e-05
5.66531e-05
5.57395e-05
5.65229e-05
5.63215e-05
5.29323e-05
5.27088e-05
5.01703e-05
4.71847e-05
4.82479e-05
3.88367e-05
3.79232e-05
1.37752e-05
2.15606e-05
1.00097e-05
2.6058e-05
2.59952e-05
3.90376e-05
4.25703e-05
5.08418e-05
5.19672e-05
5.54027e-05
5.34071e-05
5.3922e-05
5.25363e-05
4.8264e-05
4.6371e-05
4.14312e-05
3.35292e-05
3.28062e-05
2.1132e-05
2.93031e-05
2.07492e-05
3.82474e-05
3.11417e-05
4.40364e-05
4.07904e-05
4.79345e-05
4.80722e-05
5.25574e-05
5.18009e-05
5.32435e-05
5.10943e-05
5.25332e-05
5.1133e-05
4.79239e-05
4.72913e-05
4.51558e-05
3.9741e-05
4.27105e-05
3.23517e-05
3.67219e-05
1.90312e-05
2.86288e-05
1.88238e-05
3.1882e-05
3.18181e-05
4.06566e-05
4.37871e-05
4.91394e-05
4.92593e-05
5.25239e-05
4.85853e-05
5.06006e-05
4.86905e-05
4.45304e-05
4.37275e-05
4.0408e-05
3.27221e-05
3.58197e-05
2.3429e-05
3.31926e-05
2.24626e-05
3.79322e-05
3.04858e-05
4.14525e-05
4.0089e-05
4.45541e-05
4.64265e-05
4.96182e-05
4.80538e-05
5.19183e-05
4.7667e-05
5.04111e-05
4.77727e-05
4.41631e-05
4.4862e-05
4.21378e-05
3.51555e-05
4.13209e-05
2.8204e-05
3.78216e-05
2.15428e-05
3.38694e-05
2.48313e-05
3.55077e-05
3.65188e-05
4.15456e-05
4.52282e-05
4.80381e-05
4.69375e-05
5.04448e-05
4.50137e-05
4.89043e-05
4.5673e-05
4.18384e-05
4.22655e-05
3.99256e-05
3.07594e-05
3.81282e-05
2.37105e-05
3.64515e-05
2.29518e-05
3.87661e-05
2.95106e-05
3.98446e-05
3.99348e-05
4.23136e-05
4.5996e-05
4.72271e-05
4.55077e-05
5.16559e-05
4.39697e-05
4.96206e-05
4.62616e-05
4.10999e-05
4.33096e-05
4.07728e-05
3.18811e-05
4.1652e-05
2.54757e-05
3.97869e-05
2.26544e-05
3.78057e-05
2.78223e-05
3.81521e-05
4.00541e-05
4.07932e-05
4.67124e-05
4.78783e-05
4.48052e-05
4.98062e-05
4.13108e-05
4.81445e-05
4.36406e-05
3.85578e-05
4.21176e-05
3.92387e-05
2.8094e-05
4.07107e-05
2.15393e-05
3.9804e-05
2.14087e-05
3.97725e-05
2.82912e-05
3.83188e-05
4.06588e-05
3.98455e-05
4.61831e-05
4.54168e-05
4.23653e-05
5.15869e-05
4.10053e-05
4.98921e-05
4.43425e-05
3.82414e-05
4.34698e-05
3.98923e-05
2.81267e-05
4.33048e-05
2.23722e-05
4.25778e-05
2.18402e-05
4.13477e-05
2.82665e-05
3.90666e-05
4.23811e-05
3.98054e-05
4.83206e-05
4.66817e-05
4.25972e-05
5.03249e-05
3.62029e-05
4.84434e-05
4.24905e-05
3.35956e-05
4.31087e-05
3.84721e-05
2.37108e-05
4.32059e-05
1.75587e-05
4.28662e-05
1.81861e-05
4.13946e-05
2.55374e-05
3.64917e-05
4.21222e-05
3.58034e-05
4.68765e-05
4.40741e-05
3.7761e-05
5.20013e-05
3.67572e-05
5.11416e-05
4.26666e-05
3.42837e-05
4.50336e-05
3.88728e-05
2.30844e-05
4.64927e-05
1.72725e-05
4.64537e-05
1.81385e-05
4.45547e-05
2.5987e-05
3.88437e-05
4.41571e-05
3.68725e-05
5.02165e-05
4.50795e-05
3.92774e-05
5.08558e-05
2.97496e-05
5.03981e-05
4.01947e-05
2.69539e-05
4.5667e-05
3.72703e-05
1.62192e-05
4.68463e-05
1.03021e-05
4.68151e-05
1.17526e-05
4.37499e-05
1.99926e-05
3.3931e-05
4.31213e-05
3.02342e-05
4.86224e-05
4.11753e-05
3.18135e-05
5.34638e-05
3.03214e-05
5.36176e-05
4.04737e-05
2.7239e-05
4.81952e-05
3.72452e-05
1.58828e-05
5.02559e-05
9.89159e-06
5.04679e-05
1.16639e-05
4.73859e-05
2.01695e-05
3.73171e-05
4.61815e-05
3.12123e-05
5.25312e-05
4.24407e-05
3.31473e-05
5.28011e-05
1.78497e-05
5.55107e-05
3.77861e-05
1.41219e-05
5.20011e-05
3.56037e-05
1.70849e-06
5.36724e-05
-3.47175e-06
5.35346e-05
-1.14877e-06
4.83598e-05
8.06689e-06
2.94477e-05
4.57276e-05
1.90404e-05
5.27081e-05
3.75483e-05
2.09071e-05
5.48598e-05
1.95019e-05
5.81954e-05
3.62207e-05
1.55903e-05
5.43564e-05
3.37683e-05
3.09755e-06
5.56375e-05
-2.68453e-06
5.5507e-05
-2.00588e-07
5.05512e-05
8.93384e-06
3.35714e-05
4.7291e-05
2.0709e-05
5.58979e-05
3.69266e-05
2.30815e-05
5.81336e-05
-5.05597e-06
6.85111e-05
3.11229e-05
-1.32676e-05
6.843e-05
3.03285e-05
-2.79157e-05
6.69533e-05
-3.07364e-05
6.56384e-05
-2.72755e-05
5.7436e-05
-1.74172e-05
2.13848e-05
5.15615e-05
-3.39012e-06
6.32251e-05
2.89521e-05
-1.63903e-06
-0.0135298
-0.0129809
-0.0125317
-0.0122041
-0.0120122
-0.0119859
-0.0121413
-0.0124567
-0.0129214
-0.0134995
-0.0141547
-0.0148185
-0.0154097
-0.0158338
-0.0160272
-0.0159975
-0.0157564
-0.0153253
-0.0147627
-0.0141416
0.00193435
0.00199124
0.00192504
0.00179067
0.00163342
0.00151833
0.00138219
0.00120737
0.000972628
0.000687736
0.000341638
-2.52898e-05
-0.000337029
-0.000510504
-0.00046536
-0.000152151
0.00032596
0.000859893
0.00135103
0.00172254
-0.00274643
-0.00243868
-0.0022224
-0.0020874
-0.00207337
-0.00218087
-0.00237772
-0.00261761
-0.00295225
-0.00334973
-0.0038494
-0.00437152
-0.00481349
-0.00505166
-0.00507943
-0.00489743
-0.00453538
-0.00405838
-0.00356796
-0.003122
0.00338187
0.00345932
0.00347788
0.00348062
0.00345802
0.00341395
0.00328829
0.00313284
0.00285455
0.00251838
0.00200375
0.00145081
0.00102382
0.00088784
0.0011375
0.00158356
0.00213141
0.00262097
0.00299163
0.00323991
-0.000285188
-0.000126174
-5.51137e-05
-1.88273e-05
-7.96863e-05
-0.00012082
-0.000230622
-0.000344177
-0.000611106
-0.000961851
-0.0016021
-0.0023155
-0.00284474
-0.00304784
-0.00291548
-0.00251675
-0.00195099
-0.00138187
-0.000895911
-0.000529301
0.00247798
0.00259718
0.00265323
0.00269988
0.00267698
0.00264354
0.00251212
0.00237514
0.00206422
0.00167625
0.000918579
0.000183571
-0.000249137
-0.000193999
0.000213634
0.00077118
0.00130836
0.0017436
0.00207581
0.00231682
0.000290884
0.000348657
0.00035566
0.000357961
0.000326108
0.000334315
0.000266352
0.000205512
-5.07355e-05
-0.000428879
-0.00130562
-0.00214893
-0.00257551
-0.00248179
-0.00197891
-0.00134314
-0.000752253
-0.000310958
-3.78697e-06
0.000187814
0.00158489
0.00167349
0.00171335
0.00174989
0.00171288
0.00168295
0.00156689
0.0014468
0.00115078
0.000728913
-0.000200174
-0.000970996
-0.00120056
-0.00085783
-0.000266443
0.000288733
0.000752444
0.00107367
0.00130923
0.00147254
0.000370701
0.000392115
0.000381877
0.000385357
0.00036984
0.000385565
0.000336366
0.000289363
7.1457e-05
-0.000312701
-0.00126945
-0.00205866
-0.0022
-0.00176823
-0.00110772
-0.000574989
-0.0001634
8.29853e-05
0.000244244
0.000330631
0.000967427
0.00102024
0.00104049
0.00105745
0.00102545
0.000999552
0.00091066
0.000815484
0.00058567
0.000209205
-0.000674624
-0.00129123
-0.00120101
-0.00074771
-0.000183052
0.000203778
0.000502632
0.000677401
0.000812949
0.000902098
0.000329513
0.000341337
0.00033227
0.000340404
0.000328765
0.000342064
0.0003066
0.000283515
0.000133292
-0.000135304
-0.000946344
-0.00156717
-0.001396
-0.000963002
-0.000461258
-0.000160891
7.02771e-05
0.000184072
0.000269295
0.00030926
0.000586655
0.000615425
0.000623114
0.000630381
0.000604116
0.000584632
0.000521073
0.000460999
0.0003134
8.69998e-05
-0.000576054
-0.00091044
-0.000694948
-0.000325345
3.16303e-05
0.000211623
0.000364267
0.000435799
0.000507743
0.000550841
0.000266205
0.000276533
0.000272396
0.000281866
0.000272398
0.000285919
0.000263681
0.000279676
0.000206661
0.000171446
-0.000374024
-0.000792605
-0.000621614
-0.000393165
-0.00011944
5.53723e-07
0.000124089
0.000173173
0.000226898
0.000249916
0.000364335
0.000379956
0.000381382
0.000384779
0.000362995
0.000349325
0.000303458
0.00027425
0.00019854
0.000146877
-0.000189883
-0.000322434
-0.000185651
-2.69246e-05
0.000136441
0.000181888
0.00025655
0.000279918
0.000322383
0.000343398
0.000208014
0.000218005
0.000217465
0.000226387
0.000218864
0.000232301
0.000220328
0.000262058
0.000254078
0.000423663
0.000205027
-0.000227921
-0.000194074
-0.000162124
-3.66732e-05
1.11435e-05
9.83553e-05
0.000129298
0.000173778
0.000192009
0.000238198
0.000247292
0.000246287
0.000247878
0.000229775
0.000219291
0.00018312
0.000166709
0.000120672
0.00018805
0.000272717
-3.08668e-05
-4.1226e-05
-2.51322e-05
7.11408e-05
9.1762e-05
0.000157836
0.000175718
0.000210417
0.000223749
0.000162744
0.000171329
0.000172243
0.000179323
0.000173082
0.000182717
0.000173587
0.000199918
0.000179854
0.000239168
0.000132106
-8.80837e-05
-6.91197e-05
-9.18573e-05
-6.22557e-06
9.34791e-06
7.47343e-05
9.62127e-05
0.000133366
0.000148122
0.000168004
0.000173269
0.000171593
0.000172194
0.000157574
0.00014886
0.000120845
0.000104902
7.37271e-05
7.41038e-05
9.73959e-05
-5.63583e-06
3.07118e-05
2.03875e-05
7.89573e-05
7.7427e-05
0.000120079
0.000126055
0.000150519
0.000157938
0.000130643
0.000136904
0.000137928
0.000142727
0.000137224
0.000142756
0.000135895
0.00014801
0.000134463
0.000142455
8.5612e-05
-3.37924e-05
-1.73139e-05
-4.70614e-05
1.15577e-05
1.66531e-05
6.50205e-05
7.89096e-05
0.000107827
0.000118537
0.000128446
0.000131306
0.000129743
0.000129699
0.000118244
0.000111105
9.01694e-05
7.52105e-05
5.28921e-05
3.85511e-05
4.83439e-05
9.58342e-06
5.01877e-05
3.6697e-05
7.82288e-05
6.99284e-05
9.90503e-05
9.97677e-05
0.000117197
0.000121136
0.000109142
0.000112863
0.000113559
0.000116256
0.000110967
0.00011339
0.000107757
0.000111161
0.00010351
9.60466e-05
6.81759e-05
-4.55335e-06
8.11659e-06
-1.77938e-05
2.39376e-05
2.53224e-05
6.12534e-05
7.04822e-05
9.24051e-05
9.94715e-05
0.000105599
0.000106699
0.000105646
0.000105127
9.62503e-05
9.07353e-05
7.55913e-05
6.25328e-05
4.80607e-05
3.17206e-05
3.8804e-05
2.03349e-05
5.54222e-05
4.28245e-05
7.36746e-05
6.50032e-05
8.59046e-05
8.52005e-05
9.80144e-05
9.99814e-05
9.54103e-05
9.66381e-05
9.7212e-05
9.81252e-05
9.29599e-05
9.32787e-05
8.82345e-05
8.64546e-05
8.32531e-05
7.0831e-05
6.00113e-05
1.25771e-05
2.46476e-05
4.38101e-06
3.50841e-05
3.49573e-05
6.11474e-05
6.74515e-05
8.35857e-05
8.77048e-05
9.2408e-05
9.16842e-05
9.14196e-05
9.03482e-05
8.31273e-05
7.90498e-05
6.90778e-05
5.72855e-05
4.98363e-05
3.39193e-05
4.14954e-05
2.79715e-05
5.63838e-05
4.46305e-05
6.87482e-05
6.20676e-05
7.74016e-05
7.71473e-05
8.67637e-05
8.72776e-05
8.70248e-05
8.58046e-05
8.67876e-05
8.63366e-05
8.10517e-05
8.0377e-05
7.57855e-05
7.05502e-05
7.08851e-05
5.68534e-05
5.61645e-05
2.36794e-05
3.70497e-05
2.13118e-05
4.46427e-05
4.41773e-05
6.25095e-05
6.72613e-05
7.88096e-05
8.0447e-05
8.47723e-05
8.2085e-05
8.29192e-05
8.10403e-05
7.48503e-05
7.24682e-05
6.54578e-05
5.47253e-05
5.37007e-05
3.70843e-05
4.731e-05
3.27337e-05
5.6599e-05
4.56654e-05
6.47891e-05
6.08068e-05
7.19834e-05
7.30147e-05
8.00204e-05
7.93896e-05
8.18554e-05
7.86467e-05
8.06586e-05
7.85852e-05
7.35495e-05
7.26608e-05
6.88701e-05
6.07068e-05
6.43663e-05
4.90235e-05
5.57142e-05
3.12664e-05
4.65731e-05
3.2934e-05
5.19494e-05
5.16767e-05
6.41134e-05
6.84649e-05
7.59844e-05
7.60526e-05
8.06023e-05
7.5087e-05
7.79845e-05
7.51823e-05
6.91023e-05
6.82404e-05
6.32925e-05
5.24927e-05
5.69791e-05
3.9142e-05
5.25544e-05
3.58232e-05
5.75841e-05
4.63633e-05
6.26557e-05
6.10918e-05
6.8165e-05
7.13073e-05
7.61114e-05
7.41508e-05
7.96648e-05
7.33821e-05
7.73915e-05
7.35787e-05
6.802e-05
6.90362e-05
6.4791e-05
5.4485e-05
6.30328e-05
4.39848e-05
5.80002e-05
3.50524e-05
5.37199e-05
4.07471e-05
5.65574e-05
5.78177e-05
6.49138e-05
7.02286e-05
7.42031e-05
7.25036e-05
7.78416e-05
6.97962e-05
7.54851e-05
7.08043e-05
6.48835e-05
6.59543e-05
6.21627e-05
4.9193e-05
5.98732e-05
3.88759e-05
5.71913e-05
3.69052e-05
5.9675e-05
4.61393e-05
6.14055e-05
6.18841e-05
6.55059e-05
7.11617e-05
7.30542e-05
7.04611e-05
7.90782e-05
6.80001e-05
7.61338e-05
7.10501e-05
6.34702e-05
6.6932e-05
6.28611e-05
4.97759e-05
6.3971e-05
4.03209e-05
6.1339e-05
3.65623e-05
5.92003e-05
4.4555e-05
5.98097e-05
6.25467e-05
6.37206e-05
7.22123e-05
7.36191e-05
6.92582e-05
7.70023e-05
6.44003e-05
7.44762e-05
6.78142e-05
6.00583e-05
6.56168e-05
6.10225e-05
4.50201e-05
6.33694e-05
3.55635e-05
6.20166e-05
3.50586e-05
6.18357e-05
4.49972e-05
5.99625e-05
6.35059e-05
6.23173e-05
7.18078e-05
7.06697e-05
6.60501e-05
7.89968e-05
6.33277e-05
7.6466e-05
6.82656e-05
5.90036e-05
6.71985e-05
6.15643e-05
4.42641e-05
6.66334e-05
3.57656e-05
6.5664e-05
3.51634e-05
6.41215e-05
4.48378e-05
6.08268e-05
6.5833e-05
6.19112e-05
7.44511e-05
7.18533e-05
6.57308e-05
7.76554e-05
5.72162e-05
7.50299e-05
6.58913e-05
5.31011e-05
6.70208e-05
5.98225e-05
3.85395e-05
6.70545e-05
2.96724e-05
6.66455e-05
3.05544e-05
6.46169e-05
4.13704e-05
5.78223e-05
6.58028e-05
5.69168e-05
7.31046e-05
6.86518e-05
5.97117e-05
7.96336e-05
5.68465e-05
7.82886e-05
6.57429e-05
5.2867e-05
6.95051e-05
6.00507e-05
3.67266e-05
7.12657e-05
2.82702e-05
7.1306e-05
2.96597e-05
6.86367e-05
4.12294e-05
6.02242e-05
6.84095e-05
5.73784e-05
7.71494e-05
6.94203e-05
6.05389e-05
7.84876e-05
4.80187e-05
7.78588e-05
6.26216e-05
4.36686e-05
7.07066e-05
5.80326e-05
2.78981e-05
7.23309e-05
1.934e-05
7.24332e-05
2.15312e-05
6.82049e-05
3.36626e-05
5.44572e-05
6.7487e-05
4.91189e-05
7.57247e-05
6.46092e-05
5.13205e-05
8.15912e-05
4.72579e-05
8.19795e-05
6.24783e-05
4.24903e-05
7.42134e-05
5.76761e-05
2.58523e-05
7.69009e-05
1.72599e-05
7.73192e-05
1.99858e-05
7.28068e-05
3.25801e-05
5.77531e-05
7.12359e-05
4.89906e-05
8.0553e-05
6.54703e-05
5.15271e-05
8.1024e-05
3.20691e-05
8.47364e-05
5.90081e-05
2.65017e-05
7.92988e-05
5.55061e-05
8.52088e-06
8.15219e-05
8.4951e-07
8.15237e-05
4.30335e-06
7.43649e-05
1.77647e-05
4.84984e-05
7.09314e-05
3.42294e-05
8.12021e-05
5.93382e-05
3.67066e-05
8.36208e-05
3.21624e-05
8.85869e-05
5.67036e-05
2.61637e-05
8.30289e-05
5.30218e-05
7.88324e-06
8.47131e-05
-3.54622e-07
8.4695e-05
3.40728e-06
7.74752e-05
1.6903e-05
5.24266e-05
7.30991e-05
3.44445e-05
8.54473e-05
5.79346e-05
3.74687e-05
8.72202e-05
4.29837e-06
0.000100641
5.06121e-05
-6.50216e-06
9.95062e-05
4.89357e-05
-2.72375e-05
9.79374e-05
-3.22011e-05
9.6542e-05
-2.73104e-05
8.53728e-05
-1.30467e-05
3.8474e-05
7.79152e-05
7.144e-06
9.38464e-05
4.83564e-05
9.55402e-06
-0.0149498
-0.0143248
-0.013811
-0.0134358
-0.013222
-0.0132059
-0.0133951
-0.0137673
-0.0143089
-0.0149766
-0.0157259
-0.0164776
-0.0171395
-0.0176078
-0.0178141
-0.0177671
-0.0174816
-0.016986
-0.0163465
-0.0156431
0.00141562
0.00152447
0.00149526
0.00138191
0.00123485
0.00111135
0.00093501
0.000702852
0.000392752
2.06782e-05
-0.00041889
-0.000873688
-0.00125308
-0.00146173
-0.00140892
-0.00105285
-0.000506984
0.000109719
0.000686363
0.00113705
-0.00310468
-0.00274857
-0.00250907
-0.00237062
-0.00238099
-0.00252211
-0.00276676
-0.00307152
-0.00349014
-0.0039846