/*--------------------------------*- C++ -*----------------------------------*\
| =========                 |                                                 |
| \\      /  F ield         | OpenFOAM: The Open Source CFD Toolbox           |
|  \\    /   O peration     | Version:  2.4.0                                 |
|   \\  /    A nd           | Web:      www.OpenFOAM.org                      |
|    \\/     M anipulation  |                                                 |
\*---------------------------------------------------------------------------*/
FoamFile
{
    version     2.0;
    format      ascii;
    class       volScalarField;
    location    "60";
    object      epsilon;
}
// * * * * * * * * * * * * * * * * * * * * * * * * * * * * * * * * * * * * * //

dimensions      [0 2 -3 0 0 0 0];

internalField   nonuniform List<scalar> 
283312
(
9.17559e-07
7.30736e-07
8.43313e-07
1.25204e-06
1.90656e-06
2.74086e-06
3.65868e-06
4.56066e-06
5.37806e-06
6.05124e-06
6.51516e-06
6.70957e-06
6.60572e-06
6.22047e-06
5.60761e-06
4.82367e-06
3.93307e-06
3.01626e-06
2.16296e-06
1.45792e-06
2.40008e-06
3.95278e-06
5.82447e-06
7.73507e-06
9.48292e-06
1.09895e-05
1.22562e-05
1.32534e-05
1.39391e-05
1.42085e-05
1.389e-05
1.28765e-05
1.12448e-05
9.22585e-06
7.08573e-06
5.04634e-06
3.33154e-06
2.11577e-06
1.52083e-06
1.66239e-06
9.59065e-06
1.21926e-05
1.43188e-05
1.60131e-05
1.73582e-05
1.83559e-05
1.89938e-05
1.9359e-05
1.94561e-05
1.90284e-05
1.76355e-05
1.51695e-05
1.20149e-05
8.75515e-06
5.88274e-06
3.74307e-06
2.66973e-06
2.98894e-06
4.66577e-06
7.20913e-06
1.58143e-05
1.78796e-05
1.93264e-05
2.03687e-05
2.11175e-05
2.15917e-05
2.18643e-05
2.19889e-05
2.208e-05
2.15509e-05
1.94242e-05
1.5743e-05
1.14636e-05
7.61579e-06
4.8986e-06
3.87255e-06
4.8547e-06
7.36888e-06
1.05537e-05
1.36663e-05
2.00413e-05
2.12841e-05
2.20754e-05
2.2663e-05
2.30843e-05
2.33348e-05
2.3463e-05
2.34993e-05
2.38927e-05
2.33978e-05
2.04538e-05
1.57104e-05
1.07987e-05
7.04688e-06
5.42681e-06
6.46263e-06
9.36527e-06
1.28898e-05
1.61303e-05
1.86858e-05
2.23624e-05
2.30424e-05
2.34827e-05
2.38463e-05
2.41049e-05
2.42556e-05
2.43259e-05
2.43325e-05
2.46749e-05
2.35446e-05
1.96364e-05
1.44346e-05
9.65268e-06
6.90255e-06
7.3163e-06
1.01575e-05
1.39036e-05
1.73439e-05
1.99496e-05
2.17002e-05
2.35883e-05
2.39703e-05
2.42594e-05
2.45368e-05
2.47375e-05
2.48561e-05
2.49085e-05
2.49143e-05
2.52305e-05
2.34143e-05
1.90021e-05
1.45142e-05
1.15387e-05
1.02926e-05
1.14843e-05
1.45093e-05
1.78568e-05
2.05275e-05
2.23005e-05
2.3369e-05
2.42979e-05
2.45315e-05
2.47435e-05
2.49636e-05
2.51266e-05
2.52248e-05
2.52695e-05
2.52747e-05
2.50117e-05
2.21043e-05
1.74155e-05
1.30459e-05
1.08202e-05
1.12183e-05
1.38731e-05
1.73917e-05
2.0424e-05
2.24603e-05
2.36458e-05
2.43067e-05
2.47225e-05
2.48766e-05
2.50498e-05
2.52427e-05
2.53941e-05
2.54897e-05
2.55352e-05
2.55522e-05
2.49761e-05
2.16626e-05
1.71322e-05
1.26185e-05
1.06547e-05
1.22494e-05
1.58981e-05
1.9545e-05
2.21381e-05
2.36412e-05
2.44304e-05
2.48536e-05
2.50046e-05
2.51076e-05
2.52513e-05
2.54228e-05
2.55641e-05
2.56586e-05
2.57098e-05
2.5744e-05
2.50676e-05
2.17195e-05
1.76996e-05
1.34394e-05
1.18334e-05
1.40259e-05
1.78818e-05
2.12039e-05
2.32914e-05
2.43855e-05
2.49222e-05
2.52071e-05
2.51907e-05
2.52589e-05
2.53833e-05
2.55432e-05
2.56814e-05
2.57789e-05
2.58378e-05
2.58888e-05
2.52209e-05
2.1973e-05
1.8419e-05
1.41398e-05
1.29947e-05
1.57056e-05
1.95016e-05
2.24004e-05
2.40595e-05
2.48658e-05
2.52411e-05
2.54397e-05
2.53171e-05
2.53586e-05
2.54662e-05
2.56163e-05
2.57511e-05
2.585e-05
2.59168e-05
2.59828e-05
2.53924e-05
2.23302e-05
1.97893e-05
1.60728e-05
1.50269e-05
1.75381e-05
2.08598e-05
2.32677e-05
2.45789e-05
2.51859e-05
2.54565e-05
2.55989e-05
2.54012e-05
2.54224e-05
2.55172e-05
2.56609e-05
2.5794e-05
2.58941e-05
2.59672e-05
2.60443e-05
2.54604e-05
2.30143e-05
2.07285e-05
1.64268e-05
1.55562e-05
1.82708e-05
2.14958e-05
2.37148e-05
2.4873e-05
2.53844e-05
2.55988e-05
2.57065e-05
2.54545e-05
2.54595e-05
2.55431e-05
2.56809e-05
2.58114e-05
2.59101e-05
2.59847e-05
2.60653e-05
2.55168e-05
2.33541e-05
2.25752e-05
1.88244e-05
1.74691e-05
1.94729e-05
2.21658e-05
2.40813e-05
2.50858e-05
2.55211e-05
2.56949e-05
2.57779e-05
2.54869e-05
2.54785e-05
2.55528e-05
2.56862e-05
2.58145e-05
2.59116e-05
2.59862e-05
2.60665e-05
2.55317e-05
2.25874e-05
2.04381e-05
1.69215e-05
1.69337e-05
1.96442e-05
2.24517e-05
2.43037e-05
2.52336e-05
2.56187e-05
2.57619e-05
2.58254e-05
2.55017e-05
2.54827e-05
2.5549e-05
2.56783e-05
2.58034e-05
2.58963e-05
2.59626e-05
2.60242e-05
2.5478e-05
2.05459e-05
1.37465e-05
1.10091e-05
1.35026e-05
1.8116e-05
2.19915e-05
2.42509e-05
2.52789e-05
2.56688e-05
2.57997e-05
2.58515e-05
2.55067e-05
2.54773e-05
2.55364e-05
2.56625e-05
2.57849e-05
2.58748e-05
2.59355e-05
2.5988e-05
2.59809e-05
2.43193e-05
2.16308e-05
2.05589e-05
2.15746e-05
2.33416e-05
2.46876e-05
2.54179e-05
2.57227e-05
2.5826e-05
2.58557e-05
2.58726e-05
2.54996e-05
2.54627e-05
2.55161e-05
2.56395e-05
2.57591e-05
2.58452e-05
2.58991e-05
2.59413e-05
2.59644e-05
2.58281e-05
2.5599e-05
2.5531e-05
2.56496e-05
2.58044e-05
2.588e-05
2.59012e-05
2.58929e-05
2.5881e-05
2.58722e-05
2.58749e-05
2.54848e-05
2.54418e-05
2.54907e-05
2.56122e-05
2.57295e-05
2.58129e-05
2.5862e-05
2.58983e-05
2.59189e-05
2.59164e-05
2.58903e-05
2.58889e-05
2.59228e-05
2.59557e-05
2.59531e-05
2.5931e-05
2.59028e-05
2.5883e-05
2.58692e-05
2.58671e-05
2.54639e-05
2.54158e-05
2.54613e-05
2.55812e-05
2.56966e-05
2.57774e-05
2.5822e-05
2.58537e-05
2.58718e-05
2.58839e-05
2.58846e-05
2.58945e-05
2.59167e-05
2.59349e-05
2.59294e-05
2.59117e-05
2.58883e-05
2.58714e-05
2.58571e-05
2.5852e-05
2.54387e-05
2.53864e-05
2.54295e-05
2.55483e-05
2.5662e-05
2.57408e-05
2.57817e-05
2.58101e-05
2.58259e-05
2.58415e-05
2.58488e-05
2.58634e-05
2.5885e-05
2.59028e-05
2.5902e-05
2.58903e-05
2.58714e-05
2.58563e-05
2.58405e-05
2.58323e-05
2.54095e-05
2.5354e-05
2.53955e-05
2.55137e-05
2.56259e-05
2.57029e-05
2.57406e-05
2.57664e-05
2.57807e-05
2.57993e-05
2.5812e-05
2.58301e-05
2.58508e-05
2.58678e-05
2.58709e-05
2.58645e-05
2.58496e-05
2.58362e-05
2.58189e-05
2.58079e-05
2.53781e-05
2.532e-05
2.53608e-05
2.54785e-05
2.55894e-05
2.56649e-05
2.56996e-05
2.57233e-05
2.57363e-05
2.57565e-05
2.57722e-05
2.57933e-05
2.58152e-05
2.58337e-05
2.58409e-05
2.58386e-05
2.58265e-05
2.5814e-05
2.57947e-05
2.5781e-05
2.53445e-05
2.52845e-05
2.53252e-05
2.54426e-05
2.55523e-05
2.56265e-05
2.56584e-05
2.56802e-05
2.56921e-05
2.57141e-05
2.57324e-05
2.57562e-05
2.5779e-05
2.57983e-05
2.58092e-05
2.58106e-05
2.58007e-05
2.5789e-05
2.57677e-05
2.57515e-05
2.53101e-05
2.52486e-05
2.52899e-05
2.54071e-05
2.55156e-05
2.55887e-05
2.56177e-05
2.5638e-05
2.56487e-05
2.56722e-05
2.56922e-05
2.57186e-05
2.57432e-05
2.57642e-05
2.57787e-05
2.57831e-05
2.57748e-05
2.57635e-05
2.57398e-05
2.57212e-05
2.52745e-05
2.52121e-05
2.52544e-05
2.53715e-05
2.54788e-05
2.5551e-05
2.5577e-05
2.55959e-05
2.56056e-05
2.56305e-05
2.56524e-05
2.56812e-05
2.57074e-05
2.57301e-05
2.57477e-05
2.57549e-05
2.57481e-05
2.57371e-05
2.57108e-05
2.56894e-05
2.52388e-05
2.51761e-05
2.522e-05
2.53368e-05
2.5443e-05
2.55143e-05
2.55374e-05
2.5555e-05
2.55635e-05
2.55902e-05
2.56137e-05
2.56451e-05
2.5673e-05
2.56974e-05
2.57184e-05
2.57282e-05
2.57225e-05
2.57116e-05
2.56821e-05
2.56578e-05
2.52025e-05
2.51401e-05
2.5186e-05
2.53026e-05
2.54075e-05
2.54781e-05
2.5498e-05
2.55143e-05
2.55217e-05
2.55503e-05
2.55753e-05
2.56093e-05
2.56389e-05
2.56653e-05
2.56896e-05
2.57018e-05
2.56972e-05
2.56862e-05
2.5653e-05
2.56255e-05
2.5167e-05
2.51054e-05
2.51538e-05
2.527e-05
2.53736e-05
2.54435e-05
2.54599e-05
2.54748e-05
2.54812e-05
2.55119e-05
2.55386e-05
2.55751e-05
2.56067e-05
2.5635e-05
2.56628e-05
2.56773e-05
2.56737e-05
2.56624e-05
2.56251e-05
2.55939e-05
2.51312e-05
2.5071e-05
2.51226e-05
2.52382e-05
2.53403e-05
2.54096e-05
2.54223e-05
2.54356e-05
2.54411e-05
2.54744e-05
2.55027e-05
2.55422e-05
2.55756e-05
2.5606e-05
2.56376e-05
2.56542e-05
2.56514e-05
2.56398e-05
2.55973e-05
2.55622e-05
2.50964e-05
2.50379e-05
2.50934e-05
2.52083e-05
2.53088e-05
2.53775e-05
2.53861e-05
2.53978e-05
2.54022e-05
2.54383e-05
2.54684e-05
2.55109e-05
2.55461e-05
2.55785e-05
2.56146e-05
2.56333e-05
2.56312e-05
2.5619e-05
2.55707e-05
2.55312e-05
2.50621e-05
2.50062e-05
2.50663e-05
2.518e-05
2.52786e-05
2.53471e-05
2.5351e-05
2.53609e-05
2.53644e-05
2.54039e-05
2.54363e-05
2.5482e-05
2.55189e-05
2.55536e-05
2.55946e-05
2.56156e-05
2.56139e-05
2.56007e-05
2.55455e-05
2.55009e-05
2.50273e-05
2.49749e-05
2.50403e-05
2.51523e-05
2.52492e-05
2.53177e-05
2.53167e-05
2.53245e-05
2.5327e-05
2.53704e-05
2.54049e-05
2.5454e-05
2.54924e-05
2.55292e-05
2.55756e-05
2.55989e-05
2.55978e-05
2.55834e-05
2.55201e-05
2.54701e-05
2.49958e-05
2.49474e-05
2.5019e-05
2.51288e-05
2.52236e-05
2.52925e-05
2.52857e-05
2.52912e-05
2.5293e-05
2.5341e-05
2.53781e-05
2.54311e-05
2.54709e-05
2.55103e-05
2.55631e-05
2.5589e-05
2.55882e-05
2.55722e-05
2.54994e-05
2.54427e-05
2.49606e-05
2.49176e-05
2.49962e-05
2.51032e-05
2.51962e-05
2.52658e-05
2.5253e-05
2.5256e-05
2.52571e-05
2.53101e-05
2.535e-05
2.54067e-05
2.54475e-05
2.54892e-05
2.55491e-05
2.55774e-05
2.55769e-05
2.55589e-05
2.54753e-05
2.54117e-05
2.4933e-05
2.4896e-05
2.49826e-05
2.50857e-05
2.51767e-05
2.52473e-05
2.52274e-05
2.52274e-05
2.52279e-05
2.52868e-05
2.53298e-05
2.53911e-05
2.5433e-05
2.54782e-05
2.55471e-05
2.55783e-05
2.55783e-05
2.55578e-05
2.54612e-05
2.53891e-05
2.48947e-05
2.48652e-05
2.49608e-05
2.50594e-05
2.51484e-05
2.52205e-05
2.51929e-05
2.51899e-05
2.51902e-05
2.52555e-05
2.53014e-05
2.53669e-05
2.54088e-05
2.54572e-05
2.55364e-05
2.5571e-05
2.55714e-05
2.55477e-05
2.54367e-05
2.53554e-05
2.4872e-05
2.48512e-05
2.49571e-05
2.50499e-05
2.51364e-05
2.521e-05
2.5173e-05
2.51662e-05
2.51665e-05
2.52393e-05
2.52885e-05
2.53586e-05
2.54003e-05
2.54528e-05
2.55454e-05
2.55848e-05
2.55859e-05
2.55582e-05
2.54301e-05
2.53381e-05
2.48243e-05
2.48144e-05
2.49298e-05
2.50158e-05
2.51009e-05
2.51752e-05
2.51297e-05
2.51205e-05
2.51215e-05
2.52025e-05
2.52539e-05
2.53273e-05
2.53661e-05
2.54218e-05
2.55272e-05
2.55718e-05
2.55761e-05
2.5544e-05
2.53986e-05
2.52961e-05
2.41697e-05
2.40137e-05
2.41278e-05
2.43993e-05
2.44581e-05
2.45086e-05
2.45985e-05
2.45496e-05
2.45318e-05
2.44727e-05
2.45257e-05
2.44581e-05
2.45282e-05
2.43901e-05
2.40836e-05
2.4441e-05
2.46142e-05
2.47354e-05
2.48216e-05
2.47182e-05
9.59448e-07
8.35163e-07
1.07924e-06
1.67164e-06
2.53888e-06
3.59353e-06
4.70004e-06
5.75294e-06
6.68204e-06
7.42483e-06
7.91035e-06
8.07239e-06
7.88126e-06
7.36013e-06
6.57359e-06
5.59352e-06
4.49953e-06
3.39219e-06
2.38323e-06
1.57644e-06
3.16413e-06
5.09072e-06
7.31087e-06
9.49452e-06
1.14276e-05
1.3049e-05
1.4383e-05
1.54151e-05
1.61096e-05
1.63512e-05
1.59419e-05
1.47574e-05
1.28822e-05
1.05729e-05
8.1267e-06
5.78984e-06
3.83202e-06
2.47117e-06
1.87037e-06
2.17299e-06
1.14443e-05
1.42706e-05
1.65245e-05
1.82833e-05
1.9654e-05
2.06416e-05
2.12676e-05
2.16245e-05
2.17207e-05
2.12669e-05
1.97457e-05
1.70159e-05
1.3502e-05
9.86103e-06
6.65683e-06
4.30953e-06
3.22973e-06
3.78421e-06
5.84843e-06
8.7913e-06
1.80056e-05
2.01231e-05
2.15717e-05
2.25948e-05
2.33168e-05
2.37677e-05
2.4034e-05
2.4163e-05
2.43375e-05
2.39094e-05
2.16819e-05
1.76443e-05
1.28834e-05
8.60328e-06
5.64503e-06
4.67467e-06
5.96362e-06
8.87569e-06
1.24075e-05
1.57536e-05
2.22326e-05
2.34526e-05
2.42146e-05
2.47761e-05
2.51753e-05
2.54173e-05
2.55472e-05
2.55973e-05
2.62222e-05
2.60106e-05
2.29702e-05
1.77694e-05
1.23001e-05
8.14369e-06
6.46842e-06
7.75758e-06
1.10168e-05
1.48361e-05
1.82512e-05
2.08755e-05
2.44675e-05
2.51153e-05
2.55306e-05
2.58738e-05
2.61189e-05
2.62675e-05
2.63438e-05
2.63661e-05
2.69486e-05
2.60696e-05
2.19831e-05
1.63271e-05
1.10538e-05
8.11023e-06
8.6796e-06
1.18327e-05
1.58526e-05
1.94454e-05
2.2096e-05
2.38318e-05
2.56182e-05
2.59766e-05
2.62489e-05
2.65111e-05
2.67049e-05
2.68233e-05
2.68822e-05
2.69043e-05
2.74717e-05
2.58443e-05
2.12475e-05
1.66218e-05
1.36514e-05
1.22961e-05
1.34578e-05
1.65555e-05
1.99676e-05
2.26467e-05
2.43899e-05
2.54198e-05
2.62779e-05
2.64951e-05
2.66946e-05
2.69022e-05
2.70606e-05
2.71594e-05
2.72097e-05
2.72265e-05
2.70436e-05
2.40892e-05
1.92016e-05
1.47236e-05
1.2616e-05
1.31278e-05
1.58849e-05
1.94738e-05
2.25172e-05
2.45229e-05
2.56682e-05
2.62963e-05
2.66707e-05
2.68133e-05
2.69768e-05
2.71602e-05
2.73074e-05
2.74028e-05
2.74522e-05
2.74784e-05
2.69153e-05
2.35174e-05
1.88382e-05
1.41034e-05
1.21721e-05
1.39933e-05
1.78449e-05
2.15812e-05
2.41753e-05
2.56459e-05
2.64027e-05
2.6803e-05
2.6932e-05
2.70263e-05
2.7162e-05
2.73256e-05
2.74628e-05
2.75565e-05
2.76099e-05
2.76511e-05
2.69832e-05
2.35783e-05
1.94925e-05
1.49917e-05
1.3364e-05
1.57791e-05
1.98234e-05
2.32091e-05
2.52853e-05
2.63495e-05
2.68618e-05
2.71306e-05
2.71044e-05
2.71661e-05
2.72838e-05
2.7437e-05
2.7571e-05
2.76668e-05
2.77261e-05
2.77817e-05
2.71201e-05
2.38406e-05
2.028e-05
1.57483e-05
1.4602e-05
1.75173e-05
2.14528e-05
2.43818e-05
2.60211e-05
2.68015e-05
2.71587e-05
2.7346e-05
2.72216e-05
2.7258e-05
2.736e-05
2.75043e-05
2.76349e-05
2.77313e-05
2.77974e-05
2.78655e-05
2.72816e-05
2.42074e-05
2.17887e-05
1.7855e-05
1.67686e-05
1.94153e-05
2.28173e-05
2.52291e-05
2.65168e-05
2.71022e-05
2.73593e-05
2.74937e-05
2.72995e-05
2.73169e-05
2.74071e-05
2.75455e-05
2.76744e-05
2.77715e-05
2.78428e-05
2.79198e-05
2.73408e-05
2.49627e-05
2.2799e-05
1.82155e-05
1.73176e-05
2.01545e-05
2.34411e-05
2.56575e-05
2.6794e-05
2.72876e-05
2.74917e-05
2.75936e-05
2.7349e-05
2.73509e-05
2.74307e-05
2.75639e-05
2.76902e-05
2.77857e-05
2.78579e-05
2.79371e-05
2.73939e-05
2.53274e-05
2.48301e-05
2.0806e-05
1.93363e-05
2.13892e-05
2.41088e-05
2.60123e-05
2.69955e-05
2.74155e-05
2.75812e-05
2.766e-05
2.7379e-05
2.73683e-05
2.74394e-05
2.75686e-05
2.76928e-05
2.77866e-05
2.78586e-05
2.79366e-05
2.74059e-05
2.44493e-05
2.24339e-05
1.87295e-05
1.87548e-05
2.15467e-05
2.43832e-05
2.6224e-05
2.71346e-05
2.75068e-05
2.76437e-05
2.77042e-05
2.73926e-05
2.73718e-05
2.74355e-05
2.7561e-05
2.76822e-05
2.77718e-05
2.78356e-05
2.78951e-05
2.73481e-05
2.21902e-05
1.50904e-05
1.23884e-05
1.51585e-05
1.99877e-05
2.39289e-05
2.61756e-05
2.71796e-05
2.75547e-05
2.76793e-05
2.77285e-05
2.7397e-05
2.73664e-05
2.74234e-05
2.7546e-05
2.76646e-05
2.77514e-05
2.78099e-05
2.78606e-05
2.7855e-05
2.61767e-05
2.34985e-05
2.24848e-05
2.35439e-05
2.53017e-05
2.66133e-05
2.73163e-05
2.76063e-05
2.77038e-05
2.77318e-05
2.77481e-05
2.73901e-05
2.73524e-05
2.74042e-05
2.75243e-05
2.76402e-05
2.77234e-05
2.77754e-05
2.78162e-05
2.78394e-05
2.7708e-05
2.74931e-05
2.74332e-05
2.75471e-05
2.76898e-05
2.77568e-05
2.77749e-05
2.77663e-05
2.77551e-05
2.77471e-05
2.77502e-05
2.7376e-05
2.73324e-05
2.73801e-05
2.74984e-05
2.76123e-05
2.76928e-05
2.77402e-05
2.77753e-05
2.77955e-05
2.77936e-05
2.77691e-05
2.77678e-05
2.77993e-05
2.78286e-05
2.7824e-05
2.78023e-05
2.77754e-05
2.77569e-05
2.77443e-05
2.77428e-05
2.73561e-05
2.73077e-05
2.73523e-05
2.74692e-05
2.75811e-05
2.76593e-05
2.77025e-05
2.77331e-05
2.77509e-05
2.77627e-05
2.7763e-05
2.77717e-05
2.77922e-05
2.78081e-05
2.78015e-05
2.77841e-05
2.77619e-05
2.77461e-05
2.7733e-05
2.77285e-05
2.73322e-05
2.72799e-05
2.73222e-05
2.74381e-05
2.75485e-05
2.76247e-05
2.76644e-05
2.76919e-05
2.77073e-05
2.77223e-05
2.7729e-05
2.77423e-05
2.77621e-05
2.7778e-05
2.77759e-05
2.77642e-05
2.77461e-05
2.7732e-05
2.77174e-05
2.771e-05
2.73045e-05
2.72492e-05
2.72901e-05
2.74054e-05
2.75145e-05
2.7589e-05
2.76256e-05
2.76506e-05
2.76646e-05
2.76824e-05
2.76942e-05
2.77108e-05
2.77298e-05
2.77449e-05
2.77466e-05
2.774e-05
2.77257e-05
2.77132e-05
2.76971e-05
2.76869e-05
2.72749e-05
2.72171e-05
2.72573e-05
2.73722e-05
2.74801e-05
2.75531e-05
2.75869e-05
2.76099e-05
2.76226e-05
2.76419e-05
2.76565e-05
2.7676e-05
2.76962e-05
2.77128e-05
2.77184e-05
2.77157e-05
2.7704e-05
2.76923e-05
2.76742e-05
2.76615e-05
2.72431e-05
2.71836e-05
2.72237e-05
2.73384e-05
2.74451e-05
2.7517e-05
2.75481e-05
2.75693e-05
2.75809e-05
2.76018e-05
2.76189e-05
2.76409e-05
2.7662e-05
2.76794e-05
2.76887e-05
2.76894e-05
2.76798e-05
2.76687e-05
2.76488e-05
2.76338e-05
2.72107e-05
2.71497e-05
2.71904e-05
2.7305e-05
2.74106e-05
2.74814e-05
2.75098e-05
2.75295e-05
2.754e-05
2.75622e-05
2.7581e-05
2.76055e-05
2.76282e-05
2.76473e-05
2.766e-05
2.76635e-05
2.76554e-05
2.76447e-05
2.76226e-05
2.76052e-05
2.71772e-05
2.71154e-05
2.7157e-05
2.72714e-05
2.73759e-05
2.74459e-05
2.74715e-05
2.74899e-05
2.74994e-05
2.75229e-05
2.75434e-05
2.75702e-05
2.75944e-05
2.76151e-05
2.76309e-05
2.7637e-05
2.76302e-05
2.76198e-05
2.75953e-05
2.75755e-05
2.71437e-05
2.70815e-05
2.71246e-05
2.72388e-05
2.73423e-05
2.74114e-05
2.74343e-05
2.74514e-05
2.74598e-05
2.7485e-05
2.7507e-05
2.75362e-05
2.7562e-05
2.75844e-05
2.76034e-05
2.76119e-05
2.76062e-05
2.75958e-05
2.75684e-05
2.75457e-05
2.71096e-05
2.70476e-05
2.70927e-05
2.72067e-05
2.7309e-05
2.73774e-05
2.73972e-05
2.74131e-05
2.74205e-05
2.74475e-05
2.74708e-05
2.75024e-05
2.75299e-05
2.75542e-05
2.75764e-05
2.75872e-05
2.75825e-05
2.7572e-05
2.75411e-05
2.75155e-05
2.70762e-05
2.7015e-05
2.70624e-05
2.71761e-05
2.72771e-05
2.73449e-05
2.73615e-05
2.7376e-05
2.73825e-05
2.74114e-05
2.74363e-05
2.74704e-05
2.74996e-05
2.75258e-05
2.75513e-05
2.75643e-05
2.75604e-05
2.75497e-05
2.75149e-05
2.7486e-05
2.70427e-05
2.69827e-05
2.70332e-05
2.71463e-05
2.72459e-05
2.73132e-05
2.73263e-05
2.73393e-05
2.73449e-05
2.73762e-05
2.74027e-05
2.74395e-05
2.74705e-05
2.74986e-05
2.75278e-05
2.75428e-05
2.75397e-05
2.75287e-05
2.74891e-05
2.74564e-05
2.701e-05
2.69516e-05
2.70057e-05
2.71182e-05
2.72164e-05
2.72831e-05
2.72924e-05
2.73039e-05
2.73083e-05
2.73423e-05
2.73706e-05
2.74102e-05
2.74429e-05
2.74728e-05
2.75061e-05
2.75232e-05
2.75208e-05
2.75092e-05
2.74641e-05
2.74274e-05
2.69779e-05
2.6922e-05
2.69804e-05
2.70918e-05
2.71882e-05
2.72547e-05
2.72596e-05
2.72694e-05
2.72731e-05
2.73102e-05
2.73406e-05
2.73832e-05
2.74176e-05
2.74497e-05
2.74876e-05
2.75068e-05
2.75049e-05
2.74924e-05
2.74408e-05
2.73992e-05
2.69452e-05
2.68926e-05
2.6956e-05
2.70658e-05
2.71606e-05
2.72271e-05
2.72274e-05
2.72352e-05
2.7238e-05
2.72788e-05
2.73112e-05
2.7357e-05
2.73927e-05
2.74269e-05
2.74699e-05
2.74912e-05
2.74898e-05
2.74762e-05
2.7417e-05
2.73704e-05
2.6916e-05
2.68672e-05
2.69364e-05
2.70442e-05
2.7137e-05
2.72038e-05
2.71987e-05
2.72044e-05
2.72065e-05
2.72517e-05
2.72865e-05
2.73359e-05
2.7373e-05
2.74096e-05
2.74587e-05
2.74825e-05
2.74813e-05
2.74661e-05
2.7398e-05
2.73451e-05
2.68829e-05
2.68391e-05
2.6915e-05
2.70201e-05
2.71112e-05
2.71787e-05
2.7168e-05
2.71714e-05
2.71729e-05
2.72228e-05
2.72602e-05
2.73132e-05
2.73512e-05
2.739e-05
2.74456e-05
2.74716e-05
2.74708e-05
2.74537e-05
2.73755e-05
2.73161e-05
2.68577e-05
2.68196e-05
2.69029e-05
2.70043e-05
2.70935e-05
2.7162e-05
2.71445e-05
2.71451e-05
2.7146e-05
2.72015e-05
2.72419e-05
2.72993e-05
2.73384e-05
2.73805e-05
2.74446e-05
2.74734e-05
2.7473e-05
2.74535e-05
2.7363e-05
2.72956e-05
2.68216e-05
2.67906e-05
2.68824e-05
2.69795e-05
2.70669e-05
2.71367e-05
2.71121e-05
2.71099e-05
2.71105e-05
2.71722e-05
2.72153e-05
2.72767e-05
2.73159e-05
2.73609e-05
2.74347e-05
2.74666e-05
2.74666e-05
2.74441e-05
2.73401e-05
2.7264e-05
2.68014e-05
2.67786e-05
2.68801e-05
2.69718e-05
2.70567e-05
2.71279e-05
2.70944e-05
2.70886e-05
2.70893e-05
2.7158e-05
2.72044e-05
2.72701e-05
2.73091e-05
2.73581e-05
2.74445e-05
2.7481e-05
2.74816e-05
2.74554e-05
2.73351e-05
2.72488e-05
2.67573e-05
2.67448e-05
2.68554e-05
2.69406e-05
2.70241e-05
2.70961e-05
2.70544e-05
2.70463e-05
2.70478e-05
2.71244e-05
2.7173e-05
2.7242e-05
2.72782e-05
2.73304e-05
2.74292e-05
2.74705e-05
2.74739e-05
2.74434e-05
2.73065e-05
2.72102e-05
2.61864e-05
2.60542e-05
2.61594e-05
2.64031e-05
2.64679e-05
2.65172e-05
2.65913e-05
2.65524e-05
2.65357e-05
2.64995e-05
2.65442e-05
2.65033e-05
2.65572e-05
2.64614e-05
2.62891e-05
2.65327e-05
2.66598e-05
2.67495e-05
2.68079e-05
2.6712e-05
1.07138e-06
1.02675e-06
1.43557e-06
2.25214e-06
3.37152e-06
4.67137e-06
5.98451e-06
7.2009e-06
8.24937e-06
9.06507e-06
9.57081e-06
9.69375e-06
9.40284e-06
8.7278e-06
7.74477e-06
6.53985e-06
5.2107e-06
3.88147e-06
2.69072e-06
1.76645e-06
4.13793e-06
6.48061e-06
9.06665e-06
1.15221e-05
1.36286e-05
1.53551e-05
1.67448e-05
1.78017e-05
1.84975e-05
1.87045e-05
1.81945e-05
1.68235e-05
1.46839e-05
1.20594e-05
9.27874e-06
6.61911e-06
4.40342e-06
2.90133e-06
2.32535e-06
2.84281e-06
1.35197e-05
1.65518e-05
1.89135e-05
2.07184e-05
2.20983e-05
2.3063e-05
2.36707e-05
2.40168e-05
2.41169e-05
2.36475e-05
2.2001e-05
1.89943e-05
1.50967e-05
1.10495e-05
7.49832e-06
4.95318e-06
3.91047e-06
4.7579e-06
7.24939e-06
1.06024e-05
2.03448e-05
2.24915e-05
2.39247e-05
2.4916e-05
2.56024e-05
2.60294e-05
2.62888e-05
2.64239e-05
2.67125e-05
2.64422e-05
2.41393e-05
1.97198e-05
1.44296e-05
9.68371e-06
6.49108e-06
5.62027e-06
7.25645e-06
1.05817e-05
1.44508e-05
1.80076e-05
2.45177e-05
2.57013e-05
2.64261e-05
2.69562e-05
2.7331e-05
2.75637e-05
2.76958e-05
2.7763e-05
2.86953e-05
2.88904e-05
2.57955e-05
2.00951e-05
1.40008e-05
9.3997e-06
7.67504e-06
9.23253e-06
1.28473e-05
1.69426e-05
2.05052e-05
2.31723e-05
2.66383e-05
2.72481e-05
2.76352e-05
2.79557e-05
2.81872e-05
2.83335e-05
2.84166e-05
2.84573e-05
2.93549e-05
2.88506e-05
2.46142e-05
1.84694e-05
1.26514e-05
9.50169e-06
1.02252e-05
1.36784e-05
1.79469e-05
2.16617e-05
2.4331e-05
2.60342e-05
2.77026e-05
2.80347e-05
2.82887e-05
2.85343e-05
2.87209e-05
2.8839e-05
2.8905e-05
2.8946e-05
2.98424e-05
2.85159e-05
2.37669e-05
1.90785e-05
1.61805e-05
1.46514e-05
1.56878e-05
1.87798e-05
2.22004e-05
2.48516e-05
2.65447e-05
2.75257e-05
2.83067e-05
2.85062e-05
2.86922e-05
2.88868e-05
2.90403e-05
2.91394e-05
2.91958e-05
2.92253e-05
2.91473e-05
2.61835e-05
2.11193e-05
1.66092e-05
1.47023e-05
1.53087e-05
1.80974e-05
2.16901e-05
2.46996e-05
2.66498e-05
2.77432e-05
2.83335e-05
2.8665e-05
2.87953e-05
2.89484e-05
2.91217e-05
2.92642e-05
2.93594e-05
2.94127e-05
2.94487e-05
2.89036e-05
2.54441e-05
2.06436e-05
1.57128e-05
1.3856e-05
1.59083e-05
1.99267e-05
2.3712e-05
2.62795e-05
2.77034e-05
2.84218e-05
2.87965e-05
2.89037e-05
2.89889e-05
2.91161e-05
2.92712e-05
2.94038e-05
2.94965e-05
2.95521e-05
2.96008e-05
2.89459e-05
2.55118e-05
2.13964e-05
1.6658e-05
1.50228e-05
1.76603e-05
2.18672e-05
2.52881e-05
2.73349e-05
2.83606e-05
2.88449e-05
2.90962e-05
2.90613e-05
2.91162e-05
2.92269e-05
2.93728e-05
2.9502e-05
2.95957e-05
2.96554e-05
2.97158e-05
2.90645e-05
2.57848e-05
2.2259e-05
1.74728e-05
1.63318e-05
1.94423e-05
2.34911e-05
2.64268e-05
2.80327e-05
2.87815e-05
2.91182e-05
2.92933e-05
2.91685e-05
2.91998e-05
2.92959e-05
2.94337e-05
2.95594e-05
2.96532e-05
2.97182e-05
2.97887e-05
2.92147e-05
2.61608e-05
2.39186e-05
1.97603e-05
1.86293e-05
2.13956e-05
2.4852e-05
2.72478e-05
2.85015e-05
2.90609e-05
2.9303e-05
2.94288e-05
2.92399e-05
2.92534e-05
2.93386e-05
2.94712e-05
2.95952e-05
2.96889e-05
2.97582e-05
2.98351e-05
2.92643e-05
2.69933e-05
2.5e-05
2.01231e-05
1.91937e-05
2.21354e-05
2.54586e-05
2.76546e-05
2.87602e-05
2.92323e-05
2.94248e-05
2.95205e-05
2.92851e-05
2.92842e-05
2.93598e-05
2.94876e-05
2.96091e-05
2.97009e-05
2.97706e-05
2.98482e-05
2.93136e-05
2.73851e-05
2.72294e-05
2.29109e-05
2.1314e-05
2.33969e-05
2.61202e-05
2.79955e-05
2.89493e-05
2.93508e-05
2.95073e-05
2.95814e-05
2.93125e-05
2.92997e-05
2.93674e-05
2.94916e-05
2.9611e-05
2.97009e-05
2.977e-05
2.98455e-05
2.93221e-05
2.63842e-05
2.45493e-05
2.06503e-05
2.06823e-05
2.35366e-05
2.63804e-05
2.8195e-05
2.90791e-05
2.94354e-05
2.9565e-05
2.96221e-05
2.93248e-05
2.93025e-05
2.93633e-05
2.94842e-05
2.96006e-05
2.96865e-05
2.97476e-05
2.98047e-05
2.92594e-05
2.38852e-05
1.65081e-05
1.38756e-05
1.6931e-05
2.19545e-05
2.59341e-05
2.81509e-05
2.91231e-05
2.94807e-05
2.95981e-05
2.96444e-05
2.93285e-05
2.9297e-05
2.93517e-05
2.94699e-05
2.9584e-05
2.96671e-05
2.9723e-05
2.97717e-05
2.97676e-05
2.80806e-05
2.54309e-05
2.44858e-05
2.55821e-05
2.73175e-05
2.85854e-05
2.92562e-05
2.95297e-05
2.96206e-05
2.96468e-05
2.96624e-05
2.93218e-05
2.92836e-05
2.93334e-05
2.94494e-05
2.95609e-05
2.96406e-05
2.96905e-05
2.97298e-05
2.97527e-05
2.96268e-05
2.9427e-05
2.93753e-05
2.94836e-05
2.96137e-05
2.96723e-05
2.96872e-05
2.96784e-05
2.96679e-05
2.96607e-05
2.96641e-05
2.93083e-05
2.92646e-05
2.93107e-05
2.9425e-05
2.95346e-05
2.96118e-05
2.96573e-05
2.9691e-05
2.97107e-05
2.97093e-05
2.96865e-05
2.96852e-05
2.97144e-05
2.97399e-05
2.97335e-05
2.97121e-05
2.96867e-05
2.96695e-05
2.96581e-05
2.96571e-05
2.92895e-05
2.92413e-05
2.92845e-05
2.93976e-05
2.95054e-05
2.95803e-05
2.96218e-05
2.96513e-05
2.96687e-05
2.96799e-05
2.968e-05
2.96876e-05
2.97061e-05
2.97198e-05
2.97121e-05
2.96951e-05
2.96742e-05
2.96595e-05
2.96475e-05
2.96437e-05
2.9267e-05
2.9215e-05
2.92562e-05
2.93684e-05
2.94747e-05
2.95478e-05
2.9586e-05
2.96125e-05
2.96275e-05
2.96417e-05
2.96477e-05
2.96598e-05
2.96778e-05
2.96916e-05
2.96883e-05
2.96767e-05
2.96595e-05
2.96464e-05
2.9633e-05
2.96262e-05
2.92409e-05
2.91862e-05
2.92261e-05
2.93377e-05
2.94428e-05
2.95143e-05
2.95496e-05
2.95736e-05
2.95873e-05
2.96042e-05
2.9615e-05
2.96301e-05
2.96473e-05
2.96605e-05
2.96609e-05
2.96541e-05
2.96405e-05
2.96287e-05
2.96139e-05
2.96046e-05
2.9213e-05
2.9156e-05
2.91954e-05
2.93066e-05
2.94106e-05
2.94807e-05
2.95133e-05
2.95355e-05
2.95478e-05
2.95661e-05
2.95796e-05
2.95975e-05
2.96158e-05
2.96305e-05
2.96346e-05
2.96314e-05
2.96202e-05
2.96092e-05
2.95925e-05
2.95808e-05
2.91833e-05
2.91246e-05
2.91639e-05
2.9275e-05
2.93779e-05
2.94468e-05
2.9477e-05
2.94974e-05
2.95087e-05
2.95284e-05
2.95443e-05
2.95645e-05
2.95836e-05
2.95992e-05
2.96068e-05
2.96068e-05
2.95976e-05
2.95871e-05
2.95687e-05
2.95549e-05
2.9153e-05
2.9093e-05
2.91327e-05
2.92437e-05
2.93456e-05
2.94135e-05
2.94411e-05
2.94601e-05
2.94704e-05
2.94912e-05
2.95087e-05
2.95312e-05
2.95519e-05
2.95692e-05
2.958e-05
2.95826e-05
2.95748e-05
2.95646e-05
2.95441e-05
2.95282e-05
2.91216e-05
2.90608e-05
2.91015e-05
2.92123e-05
2.93132e-05
2.93804e-05
2.94054e-05
2.94231e-05
2.94324e-05
2.94545e-05
2.94735e-05
2.94981e-05
2.95203e-05
2.9539e-05
2.95529e-05
2.95579e-05
2.95513e-05
2.95414e-05
2.95187e-05
2.95004e-05
2.90903e-05
2.90292e-05
2.90712e-05
2.91818e-05
2.92818e-05
2.93482e-05
2.93706e-05
2.93871e-05
2.93953e-05
2.94189e-05
2.94394e-05
2.94663e-05
2.94899e-05
2.95103e-05
2.95272e-05
2.95345e-05
2.95288e-05
2.95189e-05
2.94935e-05
2.94727e-05
2.90586e-05
2.89975e-05
2.90413e-05
2.91519e-05
2.92507e-05
2.93164e-05
2.9336e-05
2.93514e-05
2.93587e-05
2.93839e-05
2.94056e-05
2.94347e-05
2.946e-05
2.94821e-05
2.95021e-05
2.95115e-05
2.95067e-05
2.94968e-05
2.94682e-05
2.94446e-05
2.90275e-05
2.89671e-05
2.90131e-05
2.91233e-05
2.9221e-05
2.92862e-05
2.93027e-05
2.93168e-05
2.93233e-05
2.93502e-05
2.93734e-05
2.94048e-05
2.94317e-05
2.94556e-05
2.94787e-05
2.94902e-05
2.94862e-05
2.9476e-05
2.94438e-05
2.94172e-05
2.89963e-05
2.8937e-05
2.89859e-05
2.90956e-05
2.9192e-05
2.92566e-05
2.927e-05
2.92827e-05
2.92882e-05
2.93175e-05
2.93421e-05
2.93761e-05
2.94046e-05
2.94303e-05
2.94569e-05
2.94703e-05
2.9467e-05
2.94565e-05
2.94199e-05
2.93898e-05
2.89658e-05
2.89081e-05
2.89603e-05
2.90695e-05
2.91645e-05
2.92286e-05
2.92384e-05
2.92497e-05
2.92542e-05
2.9286e-05
2.93122e-05
2.93487e-05
2.93788e-05
2.94063e-05
2.94368e-05
2.94521e-05
2.94494e-05
2.94385e-05
2.93967e-05
2.93629e-05
2.89362e-05
2.88807e-05
2.8937e-05
2.90451e-05
2.91385e-05
2.92024e-05
2.9208e-05
2.92178e-05
2.92216e-05
2.92563e-05
2.92844e-05
2.93238e-05
2.93555e-05
2.9385e-05
2.94197e-05
2.94371e-05
2.94349e-05
2.94231e-05
2.93752e-05
2.93369e-05
2.89057e-05
2.88532e-05
2.89142e-05
2.90208e-05
2.91128e-05
2.91767e-05
2.9178e-05
2.91859e-05
2.91889e-05
2.9227e-05
2.92571e-05
2.92995e-05
2.93324e-05
2.93638e-05
2.94033e-05
2.94226e-05
2.94208e-05
2.9408e-05
2.93532e-05
2.931e-05
2.88788e-05
2.88299e-05
2.88963e-05
2.90011e-05
2.90911e-05
2.91553e-05
2.91517e-05
2.91576e-05
2.91599e-05
2.92021e-05
2.92345e-05
2.92803e-05
2.93145e-05
2.93482e-05
2.93933e-05
2.94149e-05
2.94134e-05
2.93991e-05
2.93359e-05
2.9287e-05
2.88479e-05
2.88038e-05
2.88763e-05
2.89786e-05
2.90671e-05
2.91319e-05
2.91231e-05
2.91268e-05
2.91286e-05
2.91753e-05
2.92101e-05
2.92593e-05
2.92943e-05
2.933e-05
2.93812e-05
2.94048e-05
2.94037e-05
2.93876e-05
2.93149e-05
2.92599e-05
2.88251e-05
2.87863e-05
2.88657e-05
2.89645e-05
2.90512e-05
2.91169e-05
2.91018e-05
2.9103e-05
2.91042e-05
2.91562e-05
2.91938e-05
2.92471e-05
2.92832e-05
2.9322e-05
2.93811e-05
2.94073e-05
2.94065e-05
2.93881e-05
2.93041e-05
2.92416e-05
2.87913e-05
2.87591e-05
2.88465e-05
2.89414e-05
2.90263e-05
2.90933e-05
2.90715e-05
2.907e-05
2.90711e-05
2.91288e-05
2.9169e-05
2.9226e-05
2.92623e-05
2.93039e-05
2.93719e-05
2.94011e-05
2.94007e-05
2.93795e-05
2.92827e-05
2.92121e-05
2.87735e-05
2.87491e-05
2.88455e-05
2.89352e-05
2.90178e-05
2.9086e-05
2.90559e-05
2.90511e-05
2.90522e-05
2.91167e-05
2.91599e-05
2.9221e-05
2.92571e-05
2.93025e-05
2.93824e-05
2.94158e-05
2.94159e-05
2.93912e-05
2.92792e-05
2.9199e-05
2.87331e-05
2.87183e-05
2.88234e-05
2.89069e-05
2.89879e-05
2.90571e-05
2.90192e-05
2.90124e-05
2.90143e-05
2.90862e-05
2.91316e-05
2.9196e-05
2.92295e-05
2.92778e-05
2.93695e-05
2.94075e-05
2.941e-05
2.93812e-05
2.92534e-05
2.91638e-05
2.82415e-05
2.81285e-05
2.82261e-05
2.8444e-05
2.85123e-05
2.85603e-05
2.86206e-05
2.85902e-05
2.85751e-05
2.85562e-05
2.85947e-05
2.8573e-05
2.86149e-05
2.85502e-05
2.84598e-05
2.86297e-05
2.87257e-05
2.87919e-05
2.88278e-05
2.87394e-05
1.26207e-06
1.32397e-06
1.94095e-06
3.02904e-06
4.44244e-06
6.01044e-06
7.54582e-06
8.93448e-06
1.01063e-05
1.09951e-05
1.1517e-05
1.15915e-05
1.11858e-05
1.03364e-05
9.13127e-06
7.66999e-06
6.07094e-06
4.48602e-06
3.08663e-06
2.0314e-06
5.35637e-06
8.15135e-06
1.11108e-05
1.3827e-05
1.60874e-05
1.79036e-05
1.93334e-05
2.04035e-05
2.10929e-05
2.12588e-05
2.06388e-05
1.90662e-05
1.66424e-05
1.36787e-05
1.05365e-05
7.53091e-06
5.04742e-06
3.41692e-06
2.90887e-06
3.70469e-06
1.58177e-05
1.90295e-05
2.14742e-05
2.33039e-05
2.4675e-05
2.56056e-05
2.61892e-05
2.65229e-05
2.66337e-05
2.61633e-05
2.43972e-05