/*--------------------------------*- C++ -*----------------------------------*\
| =========                 |                                                 |
| \\      /  F ield         | OpenFOAM: The Open Source CFD Toolbox           |
|  \\    /   O peration     | Version:  2.4.0                                 |
|   \\  /    A nd           | Web:      www.OpenFOAM.org                      |
|    \\/     M anipulation  |                                                 |
\*---------------------------------------------------------------------------*/
FoamFile
{
    version     2.0;
    format      ascii;
    class       volScalarField;
    location    "60";
    object      k;
}
// * * * * * * * * * * * * * * * * * * * * * * * * * * * * * * * * * * * * * //

dimensions      [0 2 -2 0 0 0 0];

internalField   nonuniform List<scalar> 
283312
(
9.5332e-07
7.35768e-07
8.5079e-07
1.27065e-06
1.94518e-06
2.79385e-06
3.70246e-06
4.55714e-06
5.28522e-06
5.8376e-06
6.17278e-06
6.25931e-06
6.09153e-06
5.69644e-06
5.12612e-06
4.43009e-06
3.65712e-06
2.86305e-06
2.11057e-06
1.46526e-06
2.59675e-06
4.00911e-06
5.77103e-06
7.55541e-06
9.16543e-06
1.0522e-05
1.16295e-05
1.24738e-05
1.30293e-05
1.32119e-05
1.28854e-05
1.19739e-05
1.05528e-05
8.81728e-06
6.97867e-06
5.19586e-06
3.6284e-06
2.42589e-06
1.7476e-06
1.78776e-06
9.59993e-06
1.18873e-05
1.3807e-05
1.53425e-05
1.65718e-05
1.74905e-05
1.80765e-05
1.8401e-05
1.8465e-05
1.80331e-05
1.6738e-05
1.44995e-05
1.165e-05
8.68869e-06
6.02946e-06
3.95776e-06
2.80723e-06
3.01208e-06
4.55784e-06
6.97151e-06
1.57965e-05
1.753e-05
1.88404e-05
1.98398e-05
2.05862e-05
2.10581e-05
2.13079e-05
2.13917e-05
2.15007e-05
2.10583e-05
1.91563e-05
1.5776e-05
1.17331e-05
7.95321e-06
5.12725e-06
3.92265e-06
4.76858e-06
7.16242e-06
1.02607e-05
1.33243e-05
2.00983e-05
2.10745e-05
2.18293e-05
2.24503e-05
2.29004e-05
2.31493e-05
2.32426e-05
2.32268e-05
2.38848e-05
2.3658e-05
2.09539e-05
1.6393e-05
1.15327e-05
7.59713e-06
5.64603e-06
6.42972e-06
9.16592e-06
1.26233e-05
1.58591e-05
1.84346e-05
2.26093e-05
2.30832e-05
2.35389e-05
2.39583e-05
2.42438e-05
2.43812e-05
2.4404e-05
2.43457e-05
2.50989e-05
2.39385e-05
1.97619e-05
1.44058e-05
9.66356e-06
6.85644e-06
7.23809e-06
1.00062e-05
1.37216e-05
1.71907e-05
1.98526e-05
2.16705e-05
2.40356e-05
2.42359e-05
2.45531e-05
2.48814e-05
2.50998e-05
2.51984e-05
2.52012e-05
2.51431e-05
2.59706e-05
2.3722e-05
1.85221e-05
1.36465e-05
1.13816e-05
1.12542e-05
1.26808e-05
1.52841e-05
1.82334e-05
2.07255e-05
2.24745e-05
2.35917e-05
2.49047e-05
2.49706e-05
2.52155e-05
2.54829e-05
2.5661e-05
2.57395e-05
2.57386e-05
2.56756e-05
2.53962e-05
2.14587e-05
1.57729e-05
1.11826e-05
9.73645e-06
1.13766e-05
1.44974e-05
1.78886e-05
2.07578e-05
2.27571e-05
2.39873e-05
2.47214e-05
2.54499e-05
2.54396e-05
2.56437e-05
2.58801e-05
2.60461e-05
2.61258e-05
2.6134e-05
2.60909e-05
2.52958e-05
2.06189e-05
1.49404e-05
1.03339e-05
8.91539e-06
1.13696e-05
1.56181e-05
1.9582e-05
2.23702e-05
2.40159e-05
2.49117e-05
2.54178e-05
2.58212e-05
2.57604e-05
2.59337e-05
2.61477e-05
2.63059e-05
2.63908e-05
2.64137e-05
2.64005e-05
2.54838e-05
2.04859e-05
1.50544e-05
1.07085e-05
9.61695e-06
1.2585e-05
1.72195e-05
2.11277e-05
2.35787e-05
2.48764e-05
2.55278e-05
2.58868e-05
2.60721e-05
2.59745e-05
2.61257e-05
2.63278e-05
2.64858e-05
2.65803e-05
2.66209e-05
2.6639e-05
2.57393e-05
2.05695e-05
1.53793e-05
1.1103e-05
1.05658e-05
1.41454e-05
1.8853e-05
2.24259e-05
2.44724e-05
2.54735e-05
2.59471e-05
2.62053e-05
2.62458e-05
2.61195e-05
2.62521e-05
2.64447e-05
2.66025e-05
2.67045e-05
2.67617e-05
2.68087e-05
2.60087e-05
2.07945e-05
1.62692e-05
1.25136e-05
1.22728e-05
1.5884e-05
2.02666e-05
2.34003e-05
2.50977e-05
2.58834e-05
2.62371e-05
2.64274e-05
2.63643e-05
2.6215e-05
2.63328e-05
2.65194e-05
2.66784e-05
2.67871e-05
2.68587e-05
2.69305e-05
2.61479e-05
2.12934e-05
1.69034e-05
1.2736e-05
1.27623e-05
1.6659e-05
2.09944e-05
2.39449e-05
2.54755e-05
2.61499e-05
2.64348e-05
2.65811e-05
2.6443e-05
2.6275e-05
2.63799e-05
2.6561e-05
2.67196e-05
2.68306e-05
2.69093e-05
2.69943e-05
2.62594e-05
2.15349e-05
1.82771e-05
1.46169e-05
1.4373e-05
1.77581e-05
2.16697e-05
2.43569e-05
2.574e-05
2.63333e-05
2.65706e-05
2.6686e-05
2.64941e-05
2.63101e-05
2.6404e-05
2.65809e-05
2.67391e-05
2.68515e-05
2.69349e-05
2.70272e-05
2.63235e-05
2.09475e-05
1.66094e-05
1.31875e-05
1.41109e-05
1.81032e-05
2.20779e-05
2.46622e-05
2.59438e-05
2.64712e-05
2.66687e-05
2.67586e-05
2.65228e-05
2.63256e-05
2.64099e-05
2.65829e-05
2.67387e-05
2.68483e-05
2.69244e-05
2.69972e-05
2.63084e-05
1.99685e-05
1.22366e-05
9.33842e-06
1.21213e-05
1.74351e-05
2.20522e-05
2.4804e-05
2.6074e-05
2.65631e-05
2.67321e-05
2.68036e-05
2.65383e-05
2.6328e-05
2.64036e-05
2.65733e-05
2.67272e-05
2.68347e-05
2.69058e-05
2.69694e-05
2.69647e-05
2.4851e-05
2.17378e-05
2.0628e-05
2.18595e-05
2.39001e-05
2.54467e-05
2.6292e-05
2.66492e-05
2.67744e-05
2.6814e-05
2.68404e-05
2.65384e-05
2.63182e-05
2.63869e-05
2.65538e-05
2.67051e-05
2.68092e-05
2.68729e-05
2.69243e-05
2.69555e-05
2.67875e-05
2.65198e-05
2.64539e-05
2.66035e-05
2.67849e-05
2.68649e-05
2.68818e-05
2.68672e-05
2.68529e-05
2.68444e-05
2.68525e-05
2.65282e-05
2.62999e-05
2.63631e-05
2.6528e-05
2.66773e-05
2.6779e-05
2.68376e-05
2.68822e-05
2.691e-05
2.69108e-05
2.68834e-05
2.68832e-05
2.69241e-05
2.69621e-05
2.6954e-05
2.69232e-05
2.68868e-05
2.68635e-05
2.6849e-05
2.68507e-05
2.65101e-05
2.6275e-05
2.63339e-05
2.64972e-05
2.66446e-05
2.67438e-05
2.67973e-05
2.68363e-05
2.68601e-05
2.68782e-05
2.68817e-05
2.68944e-05
2.69209e-05
2.69417e-05
2.69314e-05
2.69068e-05
2.68768e-05
2.68571e-05
2.68416e-05
2.68393e-05
2.64863e-05
2.62454e-05
2.63012e-05
2.64633e-05
2.66091e-05
2.67064e-05
2.67558e-05
2.67911e-05
2.68115e-05
2.6833e-05
2.68435e-05
2.68615e-05
2.68869e-05
2.69074e-05
2.69034e-05
2.6887e-05
2.68627e-05
2.68454e-05
2.68279e-05
2.68215e-05
2.64574e-05
2.62119e-05
2.62657e-05
2.6427e-05
2.65714e-05
2.66669e-05
2.67125e-05
2.67446e-05
2.67629e-05
2.67875e-05
2.68039e-05
2.68261e-05
2.68505e-05
2.68701e-05
2.68713e-05
2.68617e-05
2.68425e-05
2.68271e-05
2.68075e-05
2.67974e-05
2.64254e-05
2.61761e-05
2.62288e-05
2.63896e-05
2.65326e-05
2.66266e-05
2.66689e-05
2.66986e-05
2.6715e-05
2.67411e-05
2.67604e-05
2.67861e-05
2.68117e-05
2.68329e-05
2.68396e-05
2.68352e-05
2.68195e-05
2.68053e-05
2.67832e-05
2.67697e-05
2.63907e-05
2.61384e-05
2.61908e-05
2.63512e-05
2.64928e-05
2.65856e-05
2.66246e-05
2.66522e-05
2.66669e-05
2.66949e-05
2.67169e-05
2.67457e-05
2.67723e-05
2.67946e-05
2.6806e-05
2.68062e-05
2.67933e-05
2.67799e-05
2.67552e-05
2.67387e-05
2.63547e-05
2.61e-05
2.61527e-05
2.63128e-05
2.64532e-05
2.65449e-05
2.65804e-05
2.66064e-05
2.66196e-05
2.6649e-05
2.66727e-05
2.67043e-05
2.67328e-05
2.67573e-05
2.6773e-05
2.6777e-05
2.67662e-05
2.67533e-05
2.67257e-05
2.67062e-05
2.63173e-05
2.6061e-05
2.61146e-05
2.62742e-05
2.64133e-05
2.65041e-05
2.65362e-05
2.65607e-05
2.65724e-05
2.66035e-05
2.6629e-05
2.66635e-05
2.66936e-05
2.672e-05
2.67398e-05
2.67472e-05
2.6738e-05
2.67255e-05
2.66947e-05
2.6672e-05
2.62794e-05
2.60222e-05
2.60773e-05
2.62365e-05
2.63743e-05
2.64642e-05
2.64928e-05
2.65159e-05
2.6526e-05
2.65592e-05
2.65862e-05
2.66237e-05
2.66557e-05
2.66842e-05
2.6708e-05
2.67184e-05
2.67107e-05
2.66982e-05
2.66636e-05
2.66374e-05
2.62412e-05
2.59836e-05
2.60408e-05
2.61994e-05
2.63358e-05
2.6425e-05
2.64497e-05
2.64716e-05
2.64804e-05
2.65157e-05
2.65442e-05
2.65845e-05
2.66184e-05
2.66492e-05
2.6677e-05
2.66903e-05
2.66839e-05
2.66713e-05
2.66321e-05
2.66023e-05
2.62031e-05
2.59461e-05
2.60059e-05
2.61637e-05
2.62986e-05
2.63872e-05
2.64077e-05
2.64281e-05
2.64356e-05
2.64735e-05
2.65035e-05
2.6547e-05
2.65828e-05
2.66159e-05
2.66479e-05
2.66637e-05
2.66585e-05
2.66457e-05
2.66013e-05
2.65674e-05
2.61655e-05
2.59094e-05
2.59726e-05
2.61294e-05
2.62626e-05
2.63505e-05
2.63667e-05
2.63855e-05
2.63917e-05
2.64328e-05
2.64645e-05
2.65113e-05
2.65492e-05
2.65846e-05
2.66213e-05
2.66394e-05
2.66351e-05
2.66218e-05
2.65713e-05
2.65328e-05
2.61281e-05
2.58735e-05
2.59409e-05
2.60965e-05
2.62279e-05
2.63153e-05
2.63265e-05
2.63438e-05
2.63486e-05
2.6393e-05
2.64266e-05
2.64769e-05
2.65166e-05
2.65544e-05
2.65963e-05
2.66168e-05
2.66132e-05
2.65992e-05
2.65415e-05
2.64983e-05
2.60923e-05
2.58403e-05
2.59126e-05
2.60662e-05
2.61956e-05
2.62829e-05
2.62884e-05
2.63039e-05
2.63077e-05
2.63562e-05
2.63919e-05
2.64461e-05
2.64877e-05
2.65281e-05
2.65759e-05
2.65987e-05
2.65957e-05
2.65804e-05
2.65143e-05
2.64655e-05
2.60547e-05
2.58062e-05
2.58843e-05
2.60354e-05
2.6163e-05
2.62505e-05
2.62499e-05
2.62634e-05
2.6266e-05
2.63193e-05
2.63571e-05
2.64153e-05
2.64583e-05
2.65013e-05
2.65555e-05
2.65807e-05
2.65781e-05
2.65614e-05
2.64857e-05
2.64307e-05
2.60223e-05
2.57782e-05
2.58629e-05
2.60109e-05
2.61363e-05
2.62243e-05
2.62168e-05
2.6228e-05
2.62296e-05
2.62885e-05
2.6329e-05
2.63917e-05
2.64362e-05
2.64822e-05
2.65442e-05
2.6572e-05
2.65698e-05
2.6551e-05
2.64637e-05
2.64015e-05
2.5984e-05
2.57458e-05
2.58381e-05
2.59819e-05
2.61057e-05
2.61947e-05
2.61798e-05
2.61886e-05
2.61896e-05
2.62545e-05
2.62978e-05
2.6365e-05
2.64103e-05
2.64592e-05
2.65295e-05
2.65595e-05
2.65578e-05
2.65365e-05
2.64361e-05
2.63664e-05
2.59567e-05
2.57249e-05
2.5826e-05
2.59644e-05
2.60863e-05
2.61766e-05
2.6153e-05
2.61589e-05
2.6159e-05
2.62311e-05
2.62776e-05
2.63503e-05
2.63966e-05
2.64498e-05
2.6531e-05
2.65639e-05
2.65624e-05
2.65381e-05
2.64221e-05
2.6343e-05
2.59148e-05
2.56914e-05
2.58022e-05
2.59344e-05
2.60545e-05
2.61466e-05
2.61136e-05
2.61166e-05
2.61165e-05
2.61964e-05
2.62458e-05
2.63234e-05
2.63695e-05
2.64267e-05
2.65202e-05
2.65563e-05
2.65555e-05
2.65272e-05
2.63938e-05
2.63045e-05
2.58935e-05
2.56798e-05
2.5802e-05
2.59265e-05
2.60444e-05
2.61382e-05
2.60936e-05
2.60929e-05
2.60928e-05
2.61817e-05
2.62344e-05
2.63177e-05
2.63631e-05
2.64255e-05
2.65352e-05
2.65762e-05
2.6576e-05
2.65429e-05
2.63888e-05
2.62877e-05
2.58431e-05
2.56414e-05
2.57737e-05
2.5889e-05
2.60057e-05
2.61006e-05
2.60452e-05
2.60425e-05
2.60433e-05
2.61421e-05
2.6197e-05
2.62845e-05
2.63261e-05
2.63928e-05
2.65181e-05
2.65645e-05
2.6568e-05
2.65292e-05
2.6354e-05
2.62413e-05
2.52019e-05
2.48191e-05
2.4955e-05
2.52628e-05
2.53311e-05
2.54036e-05
2.54957e-05
2.54385e-05
2.54281e-05
2.53722e-05
2.54443e-05
2.53689e-05
2.54618e-05
2.53011e-05
2.49657e-05
2.54175e-05
2.55775e-05
2.5698e-05
2.57658e-05
2.56335e-05
1.13457e-06
9.30392e-07
1.14155e-06
1.71788e-06
2.58114e-06
3.62546e-06
4.69805e-06
5.67983e-06
6.49893e-06
7.10606e-06
7.45685e-06
7.51683e-06
7.2811e-06
6.78244e-06
6.0806e-06
5.23543e-06
4.3041e-06
3.35374e-06
2.46077e-06
1.70663e-06
3.36156e-06
5.08834e-06
7.1428e-06
9.15204e-06
1.09135e-05
1.23647e-05
1.35288e-05
1.44024e-05
1.4962e-05
1.51113e-05
1.46923e-05
1.36185e-05
1.19777e-05
9.99133e-06
7.89796e-06
5.8715e-06
4.10172e-06
2.77252e-06
2.08882e-06
2.27923e-06
1.13203e-05
1.37877e-05
1.58177e-05
1.74158e-05
1.86768e-05
1.95942e-05
2.01723e-05
2.04878e-05
2.05448e-05
2.00736e-05
1.86433e-05
1.61489e-05
1.29626e-05
9.65272e-06
6.69539e-06
4.439e-06
3.29186e-06
3.72824e-06
5.63322e-06
8.41122e-06
1.78511e-05
1.96312e-05
2.09546e-05
2.19504e-05
2.26815e-05
2.31345e-05
2.33759e-05
2.34587e-05
2.36631e-05
2.33305e-05
2.13453e-05
1.76284e-05
1.31113e-05
8.88731e-06
5.79888e-06
4.63639e-06
5.76883e-06
8.53663e-06
1.19672e-05
1.52613e-05
2.2196e-05
2.31598e-05
2.38999e-05
2.4506e-05
2.49387e-05
2.51785e-05
2.52694e-05
2.52631e-05
2.62533e-05
2.63677e-05
2.3584e-05
1.85564e-05
1.31117e-05
8.71859e-06
6.65619e-06
7.63914e-06
1.06985e-05
1.44426e-05
1.78612e-05
2.05213e-05
2.46618e-05
2.51148e-05
2.55562e-05
2.59616e-05
2.6235e-05
2.63683e-05
2.63929e-05
2.63468e-05
2.75016e-05
2.65826e-05
2.21261e-05
1.62386e-05
1.10007e-05
8.009e-06
8.53934e-06
1.15953e-05
1.55745e-05
1.9204e-05
2.19279e-05
2.37492e-05
2.60382e-05
2.62234e-05
2.65314e-05
2.68483e-05
2.70601e-05
2.71569e-05
2.71628e-05
2.71195e-05
2.84052e-05
2.62504e-05
2.06502e-05
1.55129e-05
1.3497e-05
1.35837e-05
1.49799e-05
1.7496e-05
2.03864e-05
2.28347e-05
2.45431e-05
2.56255e-05
2.68705e-05
2.69282e-05
2.71668e-05
2.74247e-05
2.75984e-05
2.76763e-05
2.76786e-05
2.76237e-05
2.74658e-05
2.32834e-05
1.7194e-05
1.24398e-05
1.13537e-05
1.34278e-05
1.66981e-05
2.00674e-05
2.28759e-05
2.48183e-05
2.60051e-05
2.67097e-05
2.73911e-05
2.73774e-05
2.75773e-05
2.78067e-05
2.79689e-05
2.80479e-05
2.80583e-05
2.80215e-05
2.7221e-05
2.22173e-05
1.6187e-05
1.13502e-05
1.01064e-05
1.29761e-05
1.75189e-05
2.15966e-05
2.43957e-05
2.6017e-05
2.68868e-05
2.7374e-05
2.77463e-05
2.76848e-05
2.78553e-05
2.80637e-05
2.82185e-05
2.83022e-05
2.83264e-05
2.83182e-05
2.73899e-05
2.20519e-05
1.63194e-05
1.17378e-05
1.07351e-05
1.40726e-05
1.90234e-05
2.30758e-05
2.55564e-05
2.6842e-05
2.74761e-05
2.78223e-05
2.79862e-05
2.789e-05
2.80396e-05
2.82372e-05
2.83918e-05
2.84846e-05
2.85253e-05
2.85469e-05
2.76348e-05
2.21129e-05
1.66585e-05
1.21563e-05
1.17343e-05
1.56733e-05
2.06655e-05
2.43586e-05
2.64264e-05
2.7417e-05
2.78778e-05
2.81269e-05
2.81526e-05
2.80291e-05
2.8161e-05
2.835e-05
2.85045e-05
2.86044e-05
2.86607e-05
2.87094e-05
2.78997e-05
2.23227e-05
1.76157e-05
1.3675e-05
1.35427e-05
1.74748e-05
2.2096e-05
2.53237e-05
2.70352e-05
2.78118e-05
2.81558e-05
2.83396e-05
2.82661e-05
2.81209e-05
2.82388e-05
2.84224e-05
2.85783e-05
2.86843e-05
2.87543e-05
2.88262e-05
2.8033e-05
2.28561e-05
1.82787e-05
1.38932e-05
1.40528e-05
1.8267e-05
2.28234e-05
2.58579e-05
2.74009e-05
2.80679e-05
2.83453e-05
2.84868e-05
2.83417e-05
2.81786e-05
2.82842e-05
2.84631e-05
2.86186e-05
2.87268e-05
2.88035e-05
2.88874e-05
2.81426e-05
2.31029e-05
1.97665e-05
1.59025e-05
1.5739e-05
1.93915e-05
2.34982e-05
2.62615e-05
2.76566e-05
2.82442e-05
2.84757e-05
2.85876e-05
2.83908e-05
2.82125e-05
2.83077e-05
2.84829e-05
2.8638e-05
2.87476e-05
2.88288e-05
2.89193e-05
2.82055e-05
2.24315e-05
1.79253e-05
1.43772e-05
1.54765e-05
1.97513e-05
2.39107e-05
2.65633e-05
2.78549e-05
2.83773e-05
2.85701e-05
2.86575e-05
2.84186e-05
2.82275e-05
2.83138e-05
2.84854e-05
2.86384e-05
2.87451e-05
2.88191e-05
2.88901e-05
2.8189e-05
2.14025e-05
1.324e-05
1.03714e-05
1.35011e-05
1.91551e-05
2.39384e-05
2.67274e-05
2.79904e-05
2.84687e-05
2.8632e-05
2.87011e-05
2.84336e-05
2.82299e-05
2.8308e-05
2.84767e-05
2.86279e-05
2.87327e-05
2.88018e-05
2.88639e-05
2.88606e-05
2.66797e-05
2.35359e-05
2.24876e-05
2.37923e-05
2.58538e-05
2.73833e-05
2.82086e-05
2.85531e-05
2.86726e-05
2.87106e-05
2.87365e-05
2.84338e-05
2.82207e-05
2.82923e-05
2.84585e-05
2.86072e-05
2.87087e-05
2.87707e-05
2.88209e-05
2.88523e-05
2.86863e-05
2.843e-05
2.83717e-05
2.85184e-05
2.86894e-05
2.87615e-05
2.87755e-05
2.87608e-05
2.87472e-05
2.87398e-05
2.87484e-05
2.84242e-05
2.82033e-05
2.82698e-05
2.84341e-05
2.8581e-05
2.86802e-05
2.87372e-05
2.87808e-05
2.88083e-05
2.88094e-05
2.87832e-05
2.8783e-05
2.88219e-05
2.88564e-05
2.88459e-05
2.88151e-05
2.87799e-05
2.87578e-05
2.87446e-05
2.8747e-05
2.84069e-05
2.81794e-05
2.8242e-05
2.84048e-05
2.85499e-05
2.86467e-05
2.86989e-05
2.8737e-05
2.87605e-05
2.87783e-05
2.87814e-05
2.87929e-05
2.88178e-05
2.88364e-05
2.88245e-05
2.88e-05
2.8771e-05
2.87523e-05
2.8738e-05
2.87364e-05
2.83842e-05
2.81512e-05
2.82108e-05
2.83725e-05
2.85161e-05
2.86112e-05
2.86594e-05
2.86938e-05
2.87139e-05
2.87349e-05
2.87447e-05
2.87615e-05
2.87854e-05
2.88038e-05
2.87982e-05
2.87815e-05
2.8758e-05
2.87415e-05
2.87253e-05
2.87196e-05
2.83566e-05
2.81192e-05
2.81769e-05
2.8338e-05
2.84802e-05
2.85736e-05
2.86181e-05
2.86494e-05
2.86674e-05
2.86913e-05
2.87069e-05
2.87278e-05
2.87506e-05
2.87683e-05
2.87678e-05
2.87578e-05
2.87391e-05
2.87244e-05
2.8706e-05
2.86967e-05
2.83261e-05
2.8085e-05
2.81417e-05
2.83023e-05
2.84433e-05
2.85352e-05
2.85765e-05
2.86055e-05
2.86216e-05
2.86469e-05
2.86653e-05
2.86895e-05
2.87135e-05
2.87329e-05
2.87378e-05
2.87329e-05
2.87175e-05
2.87039e-05
2.8683e-05
2.86704e-05
2.8293e-05
2.8049e-05
2.81054e-05
2.82657e-05
2.84054e-05
2.84961e-05
2.85342e-05
2.85611e-05
2.85756e-05
2.86027e-05
2.86237e-05
2.86509e-05
2.86759e-05
2.86965e-05
2.8706e-05
2.87054e-05
2.86927e-05
2.86799e-05
2.86564e-05
2.86409e-05
2.82587e-05
2.80123e-05
2.80691e-05
2.82291e-05
2.83676e-05
2.84573e-05
2.84921e-05
2.85174e-05
2.85304e-05
2.85587e-05
2.85814e-05
2.86114e-05
2.86382e-05
2.86609e-05
2.86748e-05
2.86778e-05
2.8667e-05
2.86546e-05
2.86283e-05
2.861e-05
2.82231e-05
2.79751e-05
2.80327e-05
2.81923e-05
2.83296e-05
2.84184e-05
2.84499e-05
2.84738e-05
2.84853e-05
2.85153e-05
2.85396e-05
2.85723e-05
2.86007e-05
2.86254e-05
2.86433e-05
2.86495e-05
2.86403e-05
2.86282e-05
2.85989e-05
2.85775e-05
2.8187e-05
2.79381e-05
2.79972e-05
2.81563e-05
2.82924e-05
2.83803e-05
2.84085e-05
2.8431e-05
2.84411e-05
2.8473e-05
2.84988e-05
2.85344e-05
2.85645e-05
2.85912e-05
2.86131e-05
2.86222e-05
2.86144e-05
2.86023e-05
2.85693e-05
2.85446e-05
2.81506e-05
2.79013e-05
2.79623e-05
2.81209e-05
2.82557e-05
2.8343e-05
2.83674e-05
2.83887e-05
2.83975e-05
2.84315e-05
2.84586e-05
2.8497e-05
2.8529e-05
2.85579e-05
2.85837e-05
2.85956e-05
2.8589e-05
2.85768e-05
2.85394e-05
2.85113e-05
2.81144e-05
2.78654e-05
2.7929e-05
2.80869e-05
2.82202e-05
2.83069e-05
2.83274e-05
2.83473e-05
2.83548e-05
2.83912e-05
2.84199e-05
2.84611e-05
2.84951e-05
2.85261e-05
2.85561e-05
2.85706e-05
2.85649e-05
2.85525e-05
2.85102e-05
2.84782e-05
2.80786e-05
2.78304e-05
2.78974e-05
2.80543e-05
2.8186e-05
2.82721e-05
2.82883e-05
2.83067e-05
2.8313e-05
2.83524e-05
2.83827e-05
2.84273e-05
2.84631e-05
2.84964e-05
2.85309e-05
2.85477e-05
2.85429e-05
2.853e-05
2.84818e-05
2.84454e-05
2.80429e-05
2.77962e-05
2.78671e-05
2.80229e-05
2.81529e-05
2.82385e-05
2.825e-05
2.82669e-05
2.82719e-05
2.83145e-05
2.83465e-05
2.83944e-05
2.84321e-05
2.84677e-05
2.85072e-05
2.85262e-05
2.85222e-05
2.85086e-05
2.84536e-05
2.84125e-05
2.80088e-05
2.77647e-05
2.78403e-05
2.79942e-05
2.81223e-05
2.82078e-05
2.82138e-05
2.8229e-05
2.8233e-05
2.82796e-05
2.83138e-05
2.83653e-05
2.84047e-05
2.8443e-05
2.84881e-05
2.85094e-05
2.85059e-05
2.84911e-05
2.8428e-05
2.83815e-05
2.79729e-05
2.77321e-05
2.78133e-05
2.79648e-05
2.80911e-05
2.81768e-05
2.81771e-05
2.81904e-05
2.81932e-05
2.82444e-05
2.82806e-05
2.8336e-05
2.83768e-05
2.84174e-05
2.84687e-05
2.84922e-05
2.84892e-05
2.8473e-05
2.84007e-05
2.83483e-05
2.79423e-05
2.77057e-05
2.77934e-05
2.79419e-05
2.80661e-05
2.81522e-05
2.81458e-05
2.81569e-05
2.81589e-05
2.82155e-05
2.82543e-05
2.8314e-05
2.83562e-05
2.83999e-05
2.84585e-05
2.84845e-05
2.84819e-05
2.84637e-05
2.83802e-05
2.83209e-05
2.79056e-05
2.76747e-05
2.77697e-05
2.79142e-05
2.80368e-05
2.81239e-05
2.81105e-05
2.81193e-05
2.81206e-05
2.81831e-05
2.82246e-05
2.82886e-05
2.83316e-05
2.8378e-05
2.84446e-05
2.84728e-05
2.84705e-05
2.84499e-05
2.83539e-05
2.82873e-05
2.78801e-05
2.76555e-05
2.77588e-05
2.78981e-05
2.80188e-05
2.81072e-05
2.80854e-05
2.80915e-05
2.8092e-05
2.81615e-05
2.8206e-05
2.82754e-05
2.83194e-05
2.83699e-05
2.8447e-05
2.84779e-05
2.84759e-05
2.84522e-05
2.83412e-05
2.82657e-05
2.78399e-05
2.76232e-05
2.7736e-05
2.78694e-05
2.79883e-05
2.80784e-05
2.80476e-05
2.80508e-05
2.80512e-05
2.81282e-05
2.81756e-05
2.82498e-05
2.82936e-05
2.83479e-05
2.84368e-05
2.84708e-05
2.84694e-05
2.8442e-05
2.83141e-05
2.82288e-05
2.78205e-05
2.76133e-05
2.7737e-05
2.78628e-05
2.79796e-05
2.80714e-05
2.80294e-05
2.80291e-05
2.80295e-05
2.81153e-05
2.81659e-05
2.82455e-05
2.82887e-05
2.83481e-05
2.84527e-05
2.84913e-05
2.84904e-05
2.84583e-05
2.83104e-05
2.82137e-05
2.77729e-05
2.75773e-05
2.77109e-05
2.78277e-05
2.79432e-05
2.80362e-05
2.79837e-05
2.79815e-05
2.79829e-05
2.80783e-05
2.81312e-05
2.8215e-05
2.82545e-05
2.83181e-05
2.84381e-05
2.84818e-05
2.84841e-05
2.84464e-05
2.82779e-05
2.81699e-05
2.71975e-05
2.685e-05
2.69798e-05
2.72647e-05
2.73431e-05
2.74127e-05
2.74892e-05
2.74437e-05
2.74325e-05
2.7401e-05
2.74615e-05
2.74166e-05
2.7488e-05
2.73769e-05
2.71984e-05
2.75011e-05
2.76207e-05
2.77106e-05
2.77529e-05
2.76303e-05
1.35961e-06
1.19013e-06
1.53163e-06
2.3009e-06
3.38451e-06
4.64037e-06
5.88588e-06
6.9993e-06
7.91039e-06
8.5702e-06
8.9312e-06
8.95543e-06
8.6387e-06
8.02012e-06
7.16828e-06
6.1522e-06
5.03949e-06
3.9108e-06
2.85951e-06
1.98705e-06
4.30256e-06
6.37212e-06
8.72727e-06
1.09562e-05
1.28576e-05
1.43959e-05
1.56075e-05
1.65021e-05
1.70586e-05
1.7166e-05
1.66416e-05
1.53872e-05
1.35051e-05
1.12455e-05
8.87481e-06
6.58732e-06
4.60801e-06
3.16198e-06
2.50773e-06
2.89994e-06
1.32149e-05
1.58486e-05
1.79745e-05
1.96218e-05
2.09019e-05
2.18074e-05
2.23722e-05
2.26765e-05
2.27296e-05
2.22252e-05
2.0658e-05
1.78921e-05
1.4344e-05
1.0662e-05
7.39438e-06
4.96584e-06
3.86722e-06
4.58696e-06
6.88371e-06
1.00343e-05
2.00219e-05
2.18329e-05
2.31565e-05
2.41382e-05
2.48458e-05
2.52788e-05
2.55111e-05
2.55944e-05
2.59301e-05
2.57637e-05
2.37215e-05
1.96447e-05
1.46038e-05
9.89585e-06
6.54545e-06
5.46304e-06
6.91409e-06
1.00693e-05
1.38264e-05
1.73341e-05
2.43659e-05
2.53078e-05
2.60265e-05
2.66122e-05
2.70244e-05
2.72541e-05
2.73429e-05
2.73502e-05
2.87807e-05
2.93687e-05
2.65461e-05
2.10049e-05
1.49009e-05
9.99776e-06
7.81601e-06
8.99994e-06
1.23785e-05
1.63939e-05
1.99733e-05
2.26961e-05
2.67604e-05
2.71887e-05
2.76124e-05
2.80005e-05
2.82611e-05
2.83902e-05
2.84174e-05
2.83873e-05
3.00721e-05
2.95112e-05
2.47769e-05
1.83062e-05
1.25203e-05
9.33684e-06
1.00089e-05
1.33358e-05
1.75525e-05
2.13137e-05
2.40752e-05
2.58826e-05
2.80748e-05
2.82438e-05
2.85404e-05
2.88435e-05
2.9048e-05
2.91429e-05
2.91527e-05
2.91282e-05
3.10197e-05
2.90476e-05
2.30279e-05
1.76744e-05
1.60566e-05
1.6372e-05
1.76256e-05
1.99265e-05
2.26684e-05
2.50212e-05
2.66627e-05
2.76973e-05
2.88633e-05
2.89127e-05
2.91434e-05
2.93904e-05
2.9559e-05
2.9636e-05
2.96421e-05
2.95969e-05
2.96047e-05
2.51832e-05
1.86814e-05
1.3829e-05
1.32569e-05
1.58181e-05
1.91574e-05
2.2402e-05
2.50809e-05
2.69307e-05
2.8058e-05
2.8726e-05
2.93555e-05
2.93387e-05
2.9533e-05
2.9754e-05
2.99117e-05
2.99896e-05
3.00026e-05
2.99729e-05
2.9173e-05
2.38343e-05
1.74567e-05
1.24169e-05
1.14238e-05
1.47481e-05
1.95545e-05
2.36976e-05
2.64734e-05
2.80527e-05
2.88883e-05
2.93529e-05
2.96918e-05
2.96303e-05
2.97967e-05
2.99983e-05
3.01489e-05
3.02312e-05
3.02568e-05
3.02542e-05
2.93198e-05
2.36339e-05
1.76104e-05
1.28036e-05
1.19236e-05
1.56524e-05
2.09067e-05
2.50788e-05
2.75703e-05
2.88338e-05
2.94461e-05
2.9777e-05
2.99191e-05
2.98252e-05
2.9972e-05
3.01639e-05
3.03143e-05
3.0405e-05
3.04456e-05
3.04709e-05
2.95518e-05
2.36695e-05
1.79645e-05
1.3246e-05
1.29635e-05
1.72737e-05
2.25387e-05
2.63334e-05
2.84093e-05
2.93825e-05
2.98272e-05
3.00656e-05
3.00769e-05
2.99573e-05
3.00874e-05
3.02717e-05
3.0422e-05
3.05191e-05
3.05743e-05
3.06249e-05
2.98099e-05
2.38605e-05
1.89924e-05
1.48738e-05
1.4868e-05
1.91279e-05
2.39759e-05
2.72819e-05
2.8997e-05
2.97594e-05
3.00913e-05
3.02674e-05
3.01847e-05
3.00447e-05
3.01616e-05
3.03413e-05
3.04928e-05
3.05957e-05
3.06637e-05
3.07354e-05
2.9936e-05
2.44287e-05
1.96807e-05
1.5084e-05
1.53954e-05
1.99319e-05
2.46978e-05
2.78019e-05
2.93479e-05
3.00033e-05
3.02714e-05
3.04072e-05
3.02566e-05
3.00996e-05
3.02051e-05
3.03805e-05
3.05318e-05
3.06366e-05
3.07109e-05
3.07933e-05
3.00429e-05
2.46802e-05
2.12873e-05
1.722e-05
1.71509e-05
2.10756e-05
2.53677e-05
2.81944e-05
2.95933e-05
3.01714e-05
3.03955e-05
3.05031e-05
3.03034e-05
3.01319e-05
3.02278e-05
3.03999e-05
3.0551e-05
3.0657e-05
3.07354e-05
3.08237e-05
3.01037e-05
2.39179e-05
1.92626e-05
1.55991e-05
1.68897e-05
2.14488e-05
2.57822e-05
2.84909e-05
2.97848e-05
3.02986e-05
3.04856e-05
3.05698e-05
3.03299e-05
3.01464e-05
3.02338e-05
3.04028e-05
3.05518e-05
3.06551e-05
3.07264e-05
3.07952e-05
3.00854e-05
2.28397e-05
1.42612e-05
1.14571e-05
1.49529e-05
2.09388e-05
2.58671e-05
2.86768e-05
2.99245e-05
3.03889e-05
3.05455e-05
3.06117e-05
3.03442e-05
3.01487e-05
3.02286e-05
3.0395e-05
3.05423e-05
3.06437e-05
3.07104e-05
3.07707e-05
3.07686e-05
2.85278e-05
2.53747e-05
2.44008e-05
2.57729e-05
2.78406e-05
2.9342e-05
3.01415e-05
3.04709e-05
3.0584e-05
3.06201e-05
3.06453e-05
3.03446e-05
3.01401e-05
3.0214e-05
3.0378e-05
3.0523e-05
3.06213e-05
3.06811e-05
3.07299e-05
3.07611e-05
3.0598e-05
3.03545e-05
3.03041e-05
3.04467e-05
3.06064e-05
3.06706e-05
3.06818e-05
3.06671e-05
3.06543e-05
3.06479e-05
3.06568e-05
3.03355e-05
3.01235e-05
3.01927e-05
3.0355e-05
3.04984e-05
3.05944e-05
3.06495e-05
3.06917e-05
3.07188e-05
3.07202e-05
3.06954e-05
3.06951e-05
3.07318e-05
3.07625e-05
3.07498e-05
3.07192e-05
3.06854e-05
3.06648e-05
3.06528e-05
3.06558e-05
3.03192e-05
3.01009e-05
3.01664e-05
3.03274e-05
3.04691e-05
3.05629e-05
3.06132e-05
3.06502e-05
3.06734e-05
3.06906e-05
3.06933e-05
3.07037e-05
3.07269e-05
3.07429e-05
3.07296e-05
3.07054e-05
3.06776e-05
3.06601e-05
3.0647e-05
3.0646e-05
3.02977e-05
3.0074e-05
3.01369e-05
3.02969e-05
3.04372e-05
3.05293e-05
3.05759e-05
3.06092e-05
3.0629e-05
3.06492e-05
3.06584e-05
3.06739e-05
3.06961e-05
3.07122e-05
3.07052e-05
3.06885e-05
3.06658e-05
3.06503e-05
3.06353e-05
3.06303e-05
3.02715e-05
3.00437e-05
3.01048e-05
3.02643e-05
3.04033e-05
3.04937e-05
3.05368e-05
3.05672e-05
3.05847e-05
3.06078e-05
3.06225e-05
3.06419e-05
3.0663e-05
3.06787e-05
3.06767e-05
3.06664e-05
3.06483e-05
3.06344e-05
3.06172e-05
3.06087e-05
3.02426e-05
3.00112e-05
3.00714e-05
3.02305e-05
3.03683e-05
3.04574e-05
3.04974e-05
3.05254e-05
3.05412e-05
3.05655e-05
3.0583e-05
3.06056e-05
3.06279e-05
3.06453e-05
3.06485e-05
3.0643e-05
3.06281e-05
3.06152e-05
3.05955e-05
3.05839e-05
3.02112e-05
2.99771e-05
3.00371e-05
3.01958e-05
3.03325e-05
3.04203e-05
3.04574e-05
3.04834e-05
3.04975e-05
3.05236e-05
3.05434e-05
3.05689e-05
3.05921e-05
3.06108e-05
3.06185e-05
3.06172e-05
3.06048e-05
3.05925e-05
3.05704e-05
3.0556e-05
3.01788e-05
2.99424e-05
3.00027e-05
3.01611e-05
3.02967e-05
3.03836e-05
3.04175e-05
3.04419e-05
3.04546e-05
3.04818e-05
3.05033e-05
3.05314e-05
3.05564e-05
3.05772e-05
3.05891e-05
3.05912e-05
3.05806e-05
3.05687e-05
3.05439e-05
3.05268e-05
3.0145e-05
2.99071e-05
2.99682e-05
3.01263e-05
3.02607e-05
3.03468e-05
3.03775e-05
3.04006e-05
3.04119e-05
3.04405e-05
3.04636e-05
3.04944e-05
3.05209e-05
3.05436e-05
3.05595e-05
3.05646e-05
3.05554e-05
3.05438e-05
3.05162e-05
3.04962e-05
3.0111e-05
2.9872e-05
2.99345e-05
3.00922e-05
3.02255e-05
3.03108e-05
3.03383e-05
3.03601e-05
3.03699e-05
3.04004e-05
3.04248e-05
3.04584e-05
3.04865e-05
3.05112e-05
3.0531e-05
3.0539e-05
3.0531e-05
3.05194e-05
3.04882e-05
3.04651e-05
3.00766e-05
2.98372e-05
2.99015e-05
3.00588e-05
3.01908e-05
3.02754e-05
3.02994e-05
3.032e-05
3.03287e-05
3.03611e-05
3.03868e-05
3.04229e-05
3.04529e-05
3.04798e-05
3.05035e-05
3.0514e-05
3.05071e-05
3.04954e-05
3.04601e-05
3.04337e-05
3.00423e-05
2.98032e-05
2.98699e-05
3.00266e-05
3.01572e-05
3.02413e-05
3.02615e-05
3.02808e-05
3.02883e-05
3.03229e-05
3.03501e-05
3.0389e-05
3.04208e-05
3.04498e-05
3.04775e-05
3.04905e-05
3.04845e-05
3.04725e-05
3.04326e-05
3.04025e-05
3.00085e-05
2.97702e-05
2.98401e-05
2.99958e-05
3.01249e-05
3.02084e-05
3.02246e-05
3.02424e-05
3.02487e-05
3.02863e-05
3.0315e-05
3.0357e-05
3.03907e-05
3.04218e-05
3.04539e-05
3.04691e-05
3.0464e-05
3.04515e-05
3.04059e-05
3.03717e-05
2.99747e-05
2.97377e-05
2.98114e-05
2.99661e-05
3.00935e-05
3.01766e-05
3.01883e-05
3.02047e-05
3.02098e-05
3.02504e-05
3.02808e-05
3.03259e-05
3.03613e-05
3.03947e-05
3.04315e-05
3.04489e-05
3.04445e-05
3.04314e-05
3.03793e-05
3.03407e-05
2.99427e-05
2.97081e-05
2.97863e-05
2.99392e-05
3.00648e-05
3.01477e-05
3.01542e-05
3.0169e-05
3.01731e-05
3.02176e-05
3.025e-05
3.02986e-05
3.03357e-05
3.03715e-05
3.04137e-05
3.04333e-05
3.04295e-05
3.04153e-05
3.03554e-05
3.03116e-05
2.99085e-05
2.96771e-05
2.97607e-05
2.99113e-05
3.00352e-05
3.01183e-05
3.01194e-05
3.01324e-05
3.01354e-05
3.01843e-05
3.02186e-05
3.02709e-05
3.03093e-05
3.03474e-05
3.03955e-05
3.04172e-05
3.04138e-05
3.03982e-05
3.03296e-05
3.02802e-05
2.98799e-05
2.96525e-05
2.97423e-05
2.989e-05
3.00118e-05
3.00954e-05
3.00901e-05
3.0101e-05
3.01033e-05
3.01573e-05
3.01942e-05
3.02506e-05
3.02904e-05
3.03313e-05
3.03864e-05
3.04105e-05
3.04074e-05
3.03899e-05
3.03107e-05
3.02546e-05
2.98451e-05
2.96231e-05
2.97198e-05
2.98637e-05
2.9984e-05
3.00686e-05
3.00566e-05
3.00653e-05
3.0067e-05
3.01267e-05
3.01661e-05
3.02267e-05
3.02672e-05
3.03107e-05
3.03734e-05
3.03995e-05
3.03967e-05
3.03769e-05
3.02857e-05
3.02228e-05
2.98215e-05
2.96056e-05
2.97102e-05
2.98491e-05
2.99676e-05
3.00534e-05
3.00334e-05
3.00395e-05
3.00405e-05
3.01069e-05
3.01492e-05
3.02149e-05
3.02564e-05
3.03039e-05
3.03766e-05
3.04052e-05
3.04027e-05
3.038e-05
3.02744e-05
3.02029e-05
2.97831e-05
2.95748e-05
2.96884e-05
2.98217e-05
2.99384e-05
3.00259e-05
2.99973e-05
3.00008e-05
3.00017e-05
3.00753e-05
3.01204e-05
3.01907e-05
3.0232e-05
3.02832e-05
3.03671e-05
3.03987e-05
3.03966e-05
3.03703e-05
3.02487e-05
3.01678e-05
2.97657e-05
2.95665e-05
2.96906e-05
2.98165e-05
2.99311e-05
3.00202e-05
2.99809e-05
2.99811e-05
2.9982e-05
3.00641e-05
3.01122e-05
3.01877e-05
3.02285e-05
3.02846e-05
3.03834e-05
3.04194e-05
3.04179e-05
3.0387e-05
3.02462e-05
3.01544e-05
2.97209e-05
2.9533e-05
2.96667e-05
2.97838e-05
2.9897e-05
2.99874e-05
2.9938e-05
2.99363e-05
2.99383e-05
3.00298e-05
3.00802e-05
3.01598e-05
3.01971e-05
3.02572e-05
3.0371e-05
3.04119e-05
3.04131e-05
3.03768e-05
3.0216e-05
3.01133e-05
2.9209e-05
2.88929e-05
2.90186e-05
2.9282e-05
2.93672e-05
2.94342e-05
2.94972e-05
2.94613e-05
2.94502e-05
2.94369e-05
2.94887e-05
2.94654e-05
2.95213e-05
2.94457e-05
2.93593e-05
2.95693e-05
2.96622e-05
2.97298e-05
2.97515e-05
2.96381e-05
1.63582e-06
1.53159e-06
2.04533e-06
3.04748e-06
4.38249e-06
5.86226e-06
7.28673e-06
8.53287e-06
9.53401e-06
1.02421e-05
1.06057e-05
1.05829e-05
1.01699e-05
9.41293e-06
8.39017e-06
7.17933e-06
5.86049e-06
4.53048e-06
3.30368e-06
2.30685e-06
5.44252e-06
7.87714e-06
1.05334e-05
1.29705e-05
1.49955e-05
1.66096e-05
1.78571e-05
1.87634e-05
1.93093e-05
1.9366e-05
1.87228e-05
1.72694e-05
1.51245e-05
1.25697e-05
9.90077e-06
7.3373e-06
5.1461e-06
3.60155e-06
3.02233e-06
3.67372e-06
1.52792e-05
1.80612e-05
2.02653e-05
2.19462e-05
2.32316e-05
2.41157e-05
2.46622e-05
2.49535e-05
2.50078e-05
2.4479e-05
2.27752e-05
1.9722e-05