/*--------------------------------*- C++ -*----------------------------------*\
| =========                 |                                                 |
| \\      /  F ield         | OpenFOAM: The Open Source CFD Toolbox           |
|  \\    /   O peration     | Version:  2.4.0                                 |
|   \\  /    A nd           | Web:      www.OpenFOAM.org                      |
|    \\/     M anipulation  |                                                 |
\*---------------------------------------------------------------------------*/
FoamFile
{
    version     2.0;
    format      ascii;
    class       volScalarField;
    location    "60";
    object      nut;
}
// * * * * * * * * * * * * * * * * * * * * * * * * * * * * * * * * * * * * * //

dimensions      [0 2 -1 0 0 0 0];

internalField   nonuniform List<scalar> 
283312
(
8.91427e-08
6.66751e-08
7.725e-08
1.16058e-07
1.78612e-07
2.56309e-07
3.37209e-07
4.09826e-07
4.67458e-07
5.06835e-07
5.26355e-07
5.25533e-07
5.05563e-07
4.69489e-07
4.21737e-07
3.66175e-07
3.06048e-07
2.44587e-07
1.8535e-07
1.32538e-07
2.52859e-07
3.65962e-07
5.14627e-07
6.64192e-07
7.97271e-07
9.06707e-07
9.93138e-07
1.0566e-06
1.09611e-06
1.10566e-06
1.07582e-06
1.00211e-06
8.91307e-07
7.58412e-07
6.18591e-07
4.81483e-07
3.55654e-07
2.50332e-07
1.80736e-07
1.73034e-07
8.64831e-07
1.04307e-06
1.19821e-06
1.323e-06
1.42389e-06
1.49994e-06
1.54831e-06
1.57413e-06
1.57719e-06
1.53808e-06
1.42975e-06
1.24731e-06
1.01666e-06
7.76047e-07
5.56185e-07
3.76628e-07
2.65663e-07
2.73186e-07
4.00716e-07
6.06754e-07
1.42008e-06
1.54685e-06
1.65299e-06
1.73922e-06
1.80615e-06
1.84839e-06
1.86891e-06
1.87296e-06
1.88429e-06
1.85193e-06
1.70029e-06
1.42282e-06
1.0808e-06
7.47503e-07
4.82992e-07
3.57605e-07
4.2156e-07
6.26556e-07
8.97837e-07
1.16918e-06
1.814e-06
1.87803e-06
1.94273e-06
2.00156e-06
2.04462e-06
2.06687e-06
2.07218e-06
2.06617e-06
2.14893e-06
2.15289e-06
1.93196e-06
1.53948e-06
1.1085e-06
7.37132e-07
5.2867e-07
5.75729e-07
8.07373e-07
1.11261e-06
1.40332e-06
1.63681e-06
2.0573e-06
2.08117e-06
2.12357e-06
2.16637e-06
2.19452e-06
2.20567e-06
2.20342e-06
2.1923e-06
2.29772e-06
2.1905e-06
1.78995e-06
1.29393e-06
8.707e-07
6.12958e-07
6.44464e-07
8.87144e-07
1.21877e-06
1.5335e-06
1.77804e-06
1.94767e-06
2.20423e-06
2.20539e-06
2.23654e-06
2.27077e-06
2.29207e-06
2.29909e-06
2.29476e-06
2.28366e-06
2.40591e-06
2.16305e-06
1.62488e-06
1.15475e-06
1.0104e-06
1.10751e-06
1.26018e-06
1.44903e-06
1.67561e-06
1.88329e-06
2.03849e-06
2.14349e-06
2.2974e-06
2.28758e-06
2.31269e-06
2.34117e-06
2.3586e-06
2.36382e-06
2.35949e-06
2.34745e-06
2.32079e-06
1.87488e-06
1.28567e-06
8.62691e-07
7.88513e-07
1.03835e-06
1.36347e-06
1.65597e-06
1.89873e-06
2.07521e-06
2.19004e-06
2.26289e-06
2.35788e-06
2.34138e-06
2.36265e-06
2.38803e-06
2.40434e-06
2.41001e-06
2.40722e-06
2.3977e-06
2.30576e-06
1.76629e-06
1.1726e-06
7.61668e-07
6.714e-07
9.49768e-07
1.38087e-06
1.76572e-06
2.03444e-06
2.19568e-06
2.28622e-06
2.33954e-06
2.39981e-06
2.37872e-06
2.39711e-06
2.4204e-06
2.43624e-06
2.44294e-06
2.44233e-06
2.43663e-06
2.33162e-06
1.73901e-06
1.15241e-06
7.67933e-07
7.03405e-07
1.0163e-06
1.49235e-06
1.89466e-06
2.14825e-06
2.28395e-06
2.35333e-06
2.39264e-06
2.42858e-06
2.40392e-06
2.42009e-06
2.44227e-06
2.45839e-06
2.4666e-06
2.4685e-06
2.46699e-06
2.36415e-06
1.73301e-06
1.15571e-06
7.84651e-07
7.73186e-07
1.14662e-06
1.64035e-06
2.02063e-06
2.24031e-06
2.34863e-06
2.40055e-06
2.42945e-06
2.44877e-06
2.42128e-06
2.4356e-06
2.45698e-06
2.47338e-06
2.48285e-06
2.48707e-06
2.48947e-06
2.39759e-06
1.74279e-06
1.20377e-06
8.76826e-07
9.02107e-07
1.29474e-06
1.77213e-06
2.11803e-06
2.30646e-06
2.39403e-06
2.43375e-06
2.45545e-06
2.46276e-06
2.43292e-06
2.4457e-06
2.46659e-06
2.48338e-06
2.49398e-06
2.50028e-06
2.50622e-06
2.41685e-06
1.7731e-06
1.24058e-06
8.88699e-07
9.42323e-07
1.36705e-06
1.84543e-06
2.17596e-06
2.34834e-06
2.42447e-06
2.45682e-06
2.47369e-06
2.4723e-06
2.44051e-06
2.45197e-06
2.47241e-06
2.48937e-06
2.50054e-06
2.50802e-06
2.51607e-06
2.43211e-06
1.78716e-06
1.33176e-06
1.02149e-06
1.06431e-06
1.45749e-06
1.90662e-06
2.21721e-06
2.37701e-06
2.44542e-06
2.47285e-06
2.48635e-06
2.4787e-06
2.4452e-06
2.45551e-06
2.47561e-06
2.4927e-06
2.5043e-06
2.51265e-06
2.52209e-06
2.44259e-06
1.7484e-06
1.21481e-06
9.24971e-07
1.05828e-06
1.50148e-06
1.95392e-06
2.25233e-06
2.40066e-06
2.46168e-06
2.48465e-06
2.4953e-06
2.48264e-06
2.44768e-06
2.45698e-06
2.47674e-06
2.49371e-06
2.50517e-06
2.51297e-06
2.52058e-06
2.44492e-06
1.74665e-06
9.80334e-07
7.12917e-07
9.79312e-07
1.51019e-06
1.99018e-06
2.28328e-06
2.42047e-06
2.47397e-06
2.49284e-06
2.50117e-06
2.48506e-06
2.44864e-06
2.45701e-06
2.47648e-06
2.49334e-06
2.50471e-06
2.51212e-06
2.5189e-06
2.51871e-06
2.2855e-06
1.96607e-06
1.86275e-06
1.99334e-06
2.20247e-06
2.36062e-06
2.44765e-06
2.48482e-06
2.49818e-06
2.50271e-06
2.506e-06
2.48576e-06
2.44823e-06
2.45586e-06
2.47507e-06
2.49173e-06
2.50283e-06
2.5095e-06
2.515e-06
2.51859e-06
2.50043e-06
2.47265e-06
2.46692e-06
2.48336e-06
2.50224e-06
2.50986e-06
2.51094e-06
2.50904e-06
2.50751e-06
2.50679e-06
2.50803e-06
2.48529e-06
2.44683e-06
2.45388e-06
2.4729e-06
2.48941e-06
2.50032e-06
2.50651e-06
2.51132e-06
2.5145e-06
2.51491e-06
2.51231e-06
2.51242e-06
2.51677e-06
2.52068e-06
2.51942e-06
2.51581e-06
2.51174e-06
2.5093e-06
2.50793e-06
2.50845e-06
2.48393e-06
2.44469e-06
2.45127e-06
2.47013e-06
2.48648e-06
2.49718e-06
2.50285e-06
2.50707e-06
2.50976e-06
2.51197e-06
2.51255e-06
2.51396e-06
2.51676e-06
2.51888e-06
2.51749e-06
2.51462e-06
2.51128e-06
2.50924e-06
2.50773e-06
2.50779e-06
2.48193e-06
2.44201e-06
2.44825e-06
2.467e-06
2.4832e-06
2.49374e-06
2.49901e-06
2.50283e-06
2.50513e-06
2.50764e-06
2.50889e-06
2.51083e-06
2.51349e-06
2.51558e-06
2.51492e-06
2.51298e-06
2.51028e-06
2.5085e-06
2.50678e-06
2.50637e-06
2.47936e-06
2.43889e-06
2.44491e-06
2.46358e-06
2.47965e-06
2.49003e-06
2.49491e-06
2.49841e-06
2.50043e-06
2.50322e-06
2.50505e-06
2.50745e-06
2.51e-06
2.51201e-06
2.51194e-06
2.51076e-06
2.50861e-06
2.50703e-06
2.50506e-06
2.50424e-06
2.47643e-06
2.4355e-06
2.44138e-06
2.45999e-06
2.47594e-06
2.48619e-06
2.49073e-06
2.49398e-06
2.49578e-06
2.4987e-06
2.50079e-06
2.50353e-06
2.50619e-06
2.50837e-06
2.50891e-06
2.50832e-06
2.50657e-06
2.50512e-06
2.50286e-06
2.50167e-06
2.47321e-06
2.4319e-06
2.43774e-06
2.45629e-06
2.47212e-06
2.48225e-06
2.48644e-06
2.48949e-06
2.49108e-06
2.49418e-06
2.49651e-06
2.49958e-06
2.50234e-06
2.50465e-06
2.50571e-06
2.50561e-06
2.50417e-06
2.5028e-06
2.50026e-06
2.49874e-06
2.46982e-06
2.42821e-06
2.43406e-06
2.45256e-06
2.46827e-06
2.47831e-06
2.48214e-06
2.48503e-06
2.48644e-06
2.48967e-06
2.49215e-06
2.49551e-06
2.49844e-06
2.50097e-06
2.50252e-06
2.50283e-06
2.50161e-06
2.5003e-06
2.49744e-06
2.4956e-06
2.46628e-06
2.42446e-06
2.43037e-06
2.44882e-06
2.4644e-06
2.47435e-06
2.47783e-06
2.48057e-06
2.48181e-06
2.4852e-06
2.48784e-06
2.4915e-06
2.49459e-06
2.49732e-06
2.49931e-06
2.49999e-06
2.49895e-06
2.49767e-06
2.49446e-06
2.49229e-06
2.46266e-06
2.42071e-06
2.42674e-06
2.44512e-06
2.46057e-06
2.47045e-06
2.47355e-06
2.47617e-06
2.47723e-06
2.48084e-06
2.48361e-06
2.48757e-06
2.49084e-06
2.49379e-06
2.4962e-06
2.4972e-06
2.49632e-06
2.49505e-06
2.49143e-06
2.4889e-06
2.45904e-06
2.41699e-06
2.42321e-06
2.44151e-06
2.45682e-06
2.46664e-06
2.46932e-06
2.47183e-06
2.47275e-06
2.47658e-06
2.47947e-06
2.48372e-06
2.48718e-06
2.49037e-06
2.49321e-06
2.49451e-06
2.49376e-06
2.49248e-06
2.48837e-06
2.48547e-06
2.45538e-06
2.41335e-06
2.41981e-06
2.438e-06
2.45316e-06
2.46292e-06
2.46517e-06
2.46754e-06
2.46832e-06
2.47242e-06
2.47545e-06
2.48002e-06
2.48366e-06
2.48708e-06
2.49037e-06
2.49193e-06
2.4913e-06
2.48999e-06
2.48532e-06
2.48201e-06
2.45181e-06
2.40982e-06
2.41663e-06
2.43469e-06
2.44966e-06
2.45937e-06
2.46116e-06
2.46338e-06
2.46401e-06
2.46845e-06
2.47163e-06
2.47655e-06
2.48039e-06
2.48405e-06
2.48785e-06
2.48962e-06
2.48909e-06
2.48773e-06
2.4824e-06
2.47863e-06
2.4482e-06
2.40633e-06
2.41353e-06
2.43143e-06
2.44623e-06
2.4559e-06
2.45715e-06
2.45925e-06
2.45973e-06
2.46452e-06
2.46786e-06
2.47314e-06
2.47716e-06
2.48107e-06
2.4854e-06
2.48741e-06
2.48696e-06
2.48552e-06
2.47943e-06
2.47517e-06
2.44483e-06
2.4032e-06
2.41087e-06
2.42852e-06
2.44313e-06
2.45279e-06
2.45344e-06
2.45537e-06
2.45574e-06
2.46098e-06
2.46452e-06
2.4702e-06
2.47439e-06
2.47858e-06
2.48353e-06
2.48577e-06
2.48536e-06
2.48379e-06
2.4768e-06
2.47198e-06
2.44118e-06
2.39987e-06
2.40811e-06
2.42546e-06
2.43988e-06
2.44958e-06
2.44958e-06
2.45134e-06
2.45158e-06
2.45733e-06
2.46105e-06
2.46715e-06
2.47147e-06
2.47593e-06
2.48156e-06
2.48401e-06
2.48364e-06
2.48191e-06
2.4739e-06
2.46847e-06
2.43818e-06
2.39729e-06
2.40618e-06
2.42315e-06
2.43738e-06
2.44714e-06
2.44639e-06
2.44795e-06
2.44809e-06
2.45443e-06
2.45841e-06
2.46498e-06
2.46943e-06
2.47421e-06
2.48066e-06
2.48334e-06
2.48301e-06
2.48106e-06
2.47181e-06
2.46567e-06
2.43444e-06
2.39413e-06
2.40376e-06
2.42023e-06
2.43433e-06
2.4442e-06
2.44266e-06
2.44402e-06
2.44408e-06
2.45107e-06
2.4553e-06
2.46235e-06
2.46685e-06
2.47195e-06
2.47928e-06
2.48215e-06
2.48186e-06
2.47963e-06
2.46899e-06
2.46212e-06
2.43201e-06
2.39233e-06
2.40281e-06
2.41866e-06
2.43259e-06
2.44261e-06
2.44013e-06
2.44123e-06
2.4412e-06
2.44897e-06
2.45347e-06
2.46111e-06
2.4657e-06
2.47126e-06
2.47974e-06
2.48286e-06
2.4826e-06
2.48004e-06
2.46773e-06
2.45993e-06
2.4279e-06
2.38905e-06
2.40047e-06
2.41561e-06
2.4294e-06
2.4396e-06
2.43611e-06
2.43696e-06
2.43692e-06
2.4455e-06
2.45029e-06
2.45845e-06
2.46299e-06
2.46898e-06
2.47877e-06
2.48217e-06
2.48196e-06
2.47898e-06
2.46483e-06
2.45603e-06
2.42613e-06
2.38825e-06
2.40079e-06
2.41504e-06
2.42865e-06
2.43905e-06
2.4343e-06
2.43484e-06
2.43478e-06
2.44434e-06
2.44941e-06
2.45817e-06
2.46261e-06
2.46919e-06
2.4807e-06
2.48453e-06
2.48439e-06
2.48089e-06
2.46453e-06
2.45456e-06
2.42134e-06
2.38464e-06
2.39815e-06
2.41133e-06
2.42488e-06
2.43539e-06
2.42947e-06
2.42985e-06
2.4299e-06
2.44051e-06
2.44578e-06
2.45501e-06
2.45902e-06
2.46608e-06
2.47927e-06
2.48362e-06
2.48384e-06
2.4797e-06
2.46108e-06
2.44996e-06
2.36505e-06
2.30865e-06
2.32296e-06
2.35412e-06
2.36118e-06
2.36982e-06
2.3783e-06
2.37235e-06
2.37215e-06
2.36742e-06
2.37577e-06
2.36822e-06
2.37878e-06
2.36216e-06
2.32921e-06
2.37898e-06
2.39206e-06
2.40283e-06
2.40712e-06
2.39243e-06
1.20749e-07
9.32832e-08
1.08671e-07
1.58885e-07
2.3617e-07
3.2919e-07
4.22646e-07
5.04689e-07
5.68875e-07
6.12088e-07
6.32641e-07
6.29956e-07
6.05398e-07
5.62509e-07
5.06212e-07
4.41023e-07
3.70545e-07
2.98415e-07
2.28675e-07
1.66282e-07
3.21418e-07
4.57735e-07
6.28074e-07
7.93973e-07
9.38022e-07
1.05447e-06
1.14528e-06
1.21106e-06
1.25066e-06
1.25689e-06
1.21866e-06
1.13107e-06
1.0023e-06
8.49759e-07
6.90809e-07
5.35887e-07
3.95135e-07
2.79956e-07
2.0995e-07
2.1516e-07
1.00779e-06
1.1989e-06
1.3627e-06
1.49305e-06
1.59734e-06
1.67399e-06
1.722e-06
1.74699e-06
1.74892e-06
1.70525e-06
1.58421e-06
1.37934e-06
1.12003e-06
8.50393e-07
6.06076e-07
4.11513e-07
3.01967e-07
3.30578e-07
4.88334e-07
7.24282e-07
1.59282e-06
1.72362e-06
1.83197e-06
1.91919e-06
1.98572e-06
2.02664e-06
2.04623e-06
2.04974e-06
2.07067e-06
2.04891e-06
1.89126e-06
1.58513e-06
1.2009e-06
8.26264e-07
5.36122e-07
4.13858e-07
5.02237e-07
7.38947e-07
1.03882e-06
1.3306e-06
1.99436e-06
2.05836e-06
2.12304e-06
2.18151e-06
2.22339e-06
2.24477e-06
2.24951e-06
2.24399e-06
2.36559e-06
2.40568e-06
2.17928e-06
1.74405e-06
1.25792e-06
8.40066e-07
6.16446e-07
6.77025e-07
9.35044e-07
1.26535e-06
1.57315e-06
1.81559e-06
2.23718e-06
2.26028e-06
2.30236e-06
2.34446e-06
2.37163e-06
2.38225e-06
2.37979e-06
2.36948e-06
2.52595e-06
2.4395e-06
2.0043e-06
1.45355e-06
9.85308e-07
7.11813e-07
7.5612e-07
1.02265e-06
1.37711e-06
1.70691e-06
1.95851e-06
2.13002e-06
2.38185e-06
2.38253e-06
2.41353e-06
2.44707e-06
2.4678e-06
2.47452e-06
2.47018e-06
2.46028e-06
2.64333e-06
2.39967e-06
1.80628e-06
1.30301e-06
1.20099e-06
1.35054e-06
1.50068e-06
1.66409e-06
1.87326e-06
2.07218e-06
2.22276e-06
2.32495e-06
2.47288e-06
2.46315e-06
2.48827e-06
2.51617e-06
2.53322e-06
2.53827e-06
2.53401e-06
2.5224e-06
2.51053e-06
2.0254e-06
1.38567e-06
9.45922e-07
9.19584e-07
1.23612e-06
1.57976e-06
1.86111e-06
2.09163e-06
2.26055e-06
2.37119e-06
2.44167e-06
2.53179e-06
2.51581e-06
2.53721e-06
2.56217e-06
2.57818e-06
2.58372e-06
2.58099e-06
2.57178e-06
2.47771e-06
1.88901e-06
1.25181e-06
8.22102e-07
7.55218e-07
1.08296e-06
1.54791e-06
1.94507e-06
2.21562e-06
2.37541e-06
2.46417e-06
2.51615e-06
2.57266e-06
2.55235e-06
2.57096e-06
2.59395e-06
2.60955e-06
2.61612e-06
2.61554e-06
2.61012e-06
2.50224e-06
1.85618e-06
1.22965e-06
8.27108e-07
7.76096e-07
1.12956e-06
1.64301e-06
2.06489e-06
2.32473e-06
2.46093e-06
2.52941e-06
2.56785e-06
2.6007e-06
2.577e-06
2.59347e-06
2.61546e-06
2.63134e-06
2.6394e-06
2.64128e-06
2.63998e-06
2.53435e-06
1.84593e-06
1.23153e-06
8.44521e-07
8.48685e-07
1.26211e-06
1.79164e-06
2.19018e-06
2.41543e-06
2.52419e-06
2.57543e-06
2.6037e-06
2.62039e-06
2.59399e-06
2.60868e-06
2.62995e-06
2.64614e-06
2.65544e-06
2.65957e-06
2.6621e-06
2.56786e-06
1.85263e-06
1.28176e-06
9.42627e-07
9.84358e-07
1.41555e-06
1.92578e-06
2.28768e-06
2.48073e-06
2.56861e-06
2.60779e-06
2.62903e-06
2.63403e-06
2.60538e-06
2.61861e-06
2.63946e-06
2.65605e-06
2.66645e-06
2.67261e-06
2.67858e-06
2.58684e-06
1.88345e-06
1.31892e-06
9.53688e-07
1.02632e-06
1.49006e-06
1.99999e-06
2.34539e-06
2.52193e-06
2.59835e-06
2.63029e-06
2.64681e-06
2.64335e-06
2.61282e-06
2.62479e-06
2.64525e-06
2.66202e-06
2.67299e-06
2.6803e-06
2.6883e-06
2.60206e-06
1.89664e-06
1.41619e-06
1.09391e-06
1.15298e-06
1.58223e-06
2.06128e-06
2.38618e-06
2.55005e-06
2.61882e-06
2.64593e-06
2.65917e-06
2.64961e-06
2.61744e-06
2.62831e-06
2.64848e-06
2.66539e-06
2.67678e-06
2.68495e-06
2.69429e-06
2.61255e-06
1.85223e-06
1.28906e-06
9.9326e-07
1.14941e-06
1.62949e-06
2.11026e-06
2.42164e-06
2.57348e-06
2.63477e-06
2.65747e-06
2.66792e-06
2.65348e-06
2.6199e-06
2.62981e-06
2.64967e-06
2.66648e-06
2.67773e-06
2.68536e-06
2.69285e-06
2.61501e-06
1.85786e-06
1.04549e-06
7.81448e-07
1.08224e-06
1.65215e-06
2.1553e-06
2.45617e-06
2.59428e-06
2.64717e-06
2.66558e-06
2.6737e-06
2.65585e-06
2.62086e-06
2.6299e-06
2.6495e-06
2.66621e-06
2.67738e-06
2.68463e-06
2.69131e-06
2.69123e-06
2.44731e-06
2.12161e-06
2.02413e-06
2.16389e-06
2.37762e-06
2.53581e-06
2.62172e-06
2.65791e-06
2.67078e-06
2.67515e-06
2.6784e-06
2.65656e-06
2.6205e-06
2.62884e-06
2.6482e-06
2.66472e-06
2.67562e-06
2.68216e-06
2.68757e-06
2.69119e-06
2.67293e-06
2.64589e-06
2.64081e-06
2.65715e-06
2.67526e-06
2.68224e-06
2.6831e-06
2.68118e-06
2.67973e-06
2.67912e-06
2.68042e-06
2.65612e-06
2.61917e-06
2.62695e-06
2.64614e-06
2.66253e-06
2.67325e-06
2.67931e-06
2.68404e-06
2.68721e-06
2.68762e-06
2.68509e-06
2.68518e-06
2.6894e-06
2.69299e-06
2.69147e-06
2.68783e-06
2.68386e-06
2.68154e-06
2.68028e-06
2.68087e-06
2.65483e-06
2.61711e-06
2.62446e-06
2.6435e-06
2.65974e-06
2.67025e-06
2.6758e-06
2.67995e-06
2.68262e-06
2.68479e-06
2.68534e-06
2.68665e-06
2.68932e-06
2.69123e-06
2.68965e-06
2.68677e-06
2.6835e-06
2.68155e-06
2.68016e-06
2.68028e-06
2.65291e-06
2.61453e-06
2.62155e-06
2.6405e-06
2.6566e-06
2.66696e-06
2.67211e-06
2.67587e-06
2.67814e-06
2.6806e-06
2.6818e-06
2.68365e-06
2.68618e-06
2.68807e-06
2.68723e-06
2.68526e-06
2.68261e-06
2.6809e-06
2.67928e-06
2.67894e-06
2.65043e-06
2.61152e-06
2.61833e-06
2.63721e-06
2.65319e-06
2.6634e-06
2.66817e-06
2.6716e-06
2.67359e-06
2.67633e-06
2.6781e-06
2.68039e-06
2.68281e-06
2.68465e-06
2.6844e-06
2.68317e-06
2.68106e-06
2.67954e-06
2.67766e-06
2.67691e-06
2.64761e-06
2.60825e-06
2.61493e-06
2.63376e-06
2.64962e-06
2.6597e-06
2.66414e-06
2.66732e-06
2.6691e-06
2.67196e-06
2.67399e-06
2.67661e-06
2.67914e-06
2.68116e-06
2.68152e-06
2.68086e-06
2.67913e-06
2.67773e-06
2.67556e-06
2.67445e-06
2.6445e-06
2.60477e-06
2.61141e-06
2.6302e-06
2.64594e-06
2.6559e-06
2.66001e-06
2.66298e-06
2.66456e-06
2.66759e-06
2.66985e-06
2.6728e-06
2.67542e-06
2.67758e-06
2.67846e-06
2.67828e-06
2.67684e-06
2.67552e-06
2.67307e-06
2.67163e-06
2.64124e-06
2.60121e-06
2.60786e-06
2.6266e-06
2.64222e-06
2.6521e-06
2.65586e-06
2.65867e-06
2.66007e-06
2.66322e-06
2.66563e-06
2.66886e-06
2.67166e-06
2.67404e-06
2.67541e-06
2.67563e-06
2.6744e-06
2.67312e-06
2.67036e-06
2.66861e-06
2.63783e-06
2.59759e-06
2.6043e-06
2.62298e-06
2.63849e-06
2.64828e-06
2.65169e-06
2.65436e-06
2.65559e-06
2.6589e-06
2.66146e-06
2.66498e-06
2.66794e-06
2.67053e-06
2.67234e-06
2.67292e-06
2.67186e-06
2.6706e-06
2.66751e-06
2.66543e-06
2.63434e-06
2.59395e-06
2.6008e-06
2.61942e-06
2.63479e-06
2.64451e-06
2.64756e-06
2.65011e-06
2.65117e-06
2.65469e-06
2.65737e-06
2.66119e-06
2.66432e-06
2.66712e-06
2.66937e-06
2.67026e-06
2.66934e-06
2.66809e-06
2.66459e-06
2.66217e-06
2.63084e-06
2.59036e-06
2.59739e-06
2.61593e-06
2.63117e-06
2.64084e-06
2.64348e-06
2.64592e-06
2.64683e-06
2.65056e-06
2.65337e-06
2.65747e-06
2.66079e-06
2.66383e-06
2.66651e-06
2.66769e-06
2.6669e-06
2.66563e-06
2.66166e-06
2.65888e-06
2.62731e-06
2.58684e-06
2.5941e-06
2.61254e-06
2.62763e-06
2.63725e-06
2.63946e-06
2.64177e-06
2.64255e-06
2.64654e-06
2.64948e-06
2.65389e-06
2.65739e-06
2.66066e-06
2.66378e-06
2.66522e-06
2.66455e-06
2.66325e-06
2.65874e-06
2.65555e-06
2.62387e-06
2.58343e-06
2.59103e-06
2.60935e-06
2.62426e-06
2.63382e-06
2.63559e-06
2.63775e-06
2.63839e-06
2.64271e-06
2.6458e-06
2.65055e-06
2.65425e-06
2.65775e-06
2.66136e-06
2.66303e-06
2.66244e-06
2.6611e-06
2.65594e-06
2.65231e-06
2.62037e-06
2.58005e-06
2.58804e-06
2.6062e-06
2.62094e-06
2.63046e-06
2.63171e-06
2.63375e-06
2.63425e-06
2.63891e-06
2.64216e-06
2.64726e-06
2.65112e-06
2.65488e-06
2.65902e-06
2.66091e-06
2.6604e-06
2.65898e-06
2.65308e-06
2.64897e-06
2.61712e-06
2.57704e-06
2.58548e-06
2.6034e-06
2.61797e-06
2.62747e-06
2.62814e-06
2.63001e-06
2.6304e-06
2.63551e-06
2.63894e-06
2.64444e-06
2.64847e-06
2.65249e-06
2.65725e-06
2.65936e-06
2.6589e-06
2.65735e-06
2.65057e-06
2.64591e-06
2.61358e-06
2.5738e-06
2.58281e-06
2.60043e-06
2.61481e-06
2.62436e-06
2.62439e-06
2.62611e-06
2.62637e-06
2.63197e-06
2.63559e-06
2.6415e-06
2.64565e-06
2.64994e-06
2.65534e-06
2.65767e-06
2.65725e-06
2.65555e-06
2.64776e-06
2.64251e-06
2.6107e-06
2.57134e-06
2.58098e-06
2.59824e-06
2.61242e-06
2.62203e-06
2.62133e-06
2.62284e-06
2.62302e-06
2.6292e-06
2.63308e-06
2.63944e-06
2.64373e-06
2.64833e-06
2.65453e-06
2.65709e-06
2.6567e-06
2.65477e-06
2.64578e-06
2.63983e-06
2.60706e-06
2.56826e-06
2.57863e-06
2.59541e-06
2.60946e-06
2.61917e-06
2.61771e-06
2.61903e-06
2.61913e-06
2.62595e-06
2.63007e-06
2.6369e-06
2.64124e-06
2.64614e-06
2.65321e-06
2.65594e-06
2.65559e-06
2.6534e-06
2.64305e-06
2.63638e-06
2.60474e-06
2.56657e-06
2.57778e-06
2.59394e-06
2.60782e-06
2.61769e-06
2.6153e-06
2.61637e-06
2.61638e-06
2.62397e-06
2.62837e-06
2.63577e-06
2.6402e-06
2.64555e-06
2.65374e-06
2.65672e-06
2.65639e-06
2.65386e-06
2.64189e-06
2.63431e-06
2.60072e-06
2.56336e-06
2.5755e-06
2.59097e-06
2.6047e-06
2.61475e-06
2.61138e-06
2.61221e-06
2.61221e-06
2.62061e-06
2.62528e-06
2.63319e-06
2.63757e-06
2.64335e-06
2.65281e-06
2.65606e-06
2.65578e-06
2.65285e-06
2.63906e-06
2.6305e-06
2.59906e-06
2.56267e-06
2.57591e-06
2.5905e-06
2.60405e-06
2.6143e-06
2.6097e-06
2.61021e-06
2.61022e-06
2.61956e-06
2.62453e-06
2.63302e-06
2.63731e-06
2.64366e-06
2.6548e-06
2.65848e-06
2.65825e-06
2.6548e-06
2.63885e-06
2.62915e-06
2.59444e-06
2.55922e-06
2.57342e-06
2.58696e-06
2.60042e-06
2.6108e-06
2.60505e-06
2.6054e-06
2.60552e-06
2.61592e-06
2.62108e-06
2.63004e-06
2.63391e-06
2.64074e-06
2.65357e-06
2.65773e-06
2.65783e-06
2.65375e-06
2.63555e-06
2.62471e-06
2.54229e-06
2.49031e-06
2.50433e-06
2.53389e-06
2.54225e-06
2.55045e-06
2.55757e-06
2.55283e-06
2.55236e-06
2.54999e-06
2.55695e-06
2.55253e-06
2.56064e-06
2.54917e-06
2.53252e-06
2.56545e-06
2.57547e-06
2.58357e-06
2.58581e-06
2.57221e-06
1.55284e-07
1.24156e-07
1.4707e-07
2.11564e-07
3.0578e-07
4.14862e-07
5.21e-07
6.12301e-07
6.82681e-07
7.29211e-07
7.50089e-07
7.44601e-07
7.14299e-07
6.63284e-07
5.97123e-07
5.20877e-07
4.38652e-07
3.54631e-07
2.73499e-07
2.01168e-07
4.02635e-07
5.63891e-07
7.56054e-07
9.37636e-07
1.09171e-06
1.21469e-06
1.30927e-06
1.37676e-06
1.41584e-06
1.41787e-06
1.36991e-06
1.26663e-06
1.11789e-06
9.4379e-07
7.63962e-07
5.90011e-07
4.3399e-07
3.10144e-07
2.43398e-07
2.66239e-07
1.16252e-06
1.36578e-06
1.53739e-06
1.67249e-06
1.77932e-06
1.85581e-06
1.90304e-06
1.92699e-06
1.92799e-06
1.87996e-06
1.74573e-06
1.51684e-06
1.22659e-06
9.25933e-07
6.5627e-07
4.48067e-07
3.44201e-07
3.97996e-07
5.88283e-07
8.54692e-07
1.77337e-06
1.90742e-06
2.01716e-06
2.10462e-06
2.17004e-06
2.20949e-06
2.22809e-06
2.23119e-06
2.26536e-06
2.25923e-06
2.09799e-06
1.76128e-06
1.33021e-06
9.10138e-07
5.94024e-07
4.77919e-07
5.92909e-07
8.62366e-07
1.1906e-06
1.50172e-06
2.17934e-06
2.24283e-06
2.30697e-06
2.36453e-06
2.40491e-06
2.42531e-06
2.42951e-06
2.42491e-06
2.59798e-06
2.68693e-06
2.45867e-06
1.97602e-06
1.42729e-06
9.57048e-07
7.1636e-07
7.89588e-07
1.07341e-06
1.42766e-06
1.75097e-06
2.00068e-06
2.41947e-06
2.44165e-06
2.48307e-06
2.52409e-06
2.55016e-06
2.56022e-06
2.55764e-06
2.54857e-06
2.77261e-06
2.71682e-06
2.24466e-06
1.633e-06
1.11514e-06
8.25736e-07
8.81739e-07
1.17016e-06
1.545e-06
1.88742e-06
2.14398e-06
2.31586e-06
2.56069e-06
2.5609e-06
2.59149e-06
2.62405e-06
2.6441e-06
2.65051e-06
2.64623e-06
2.63804e-06
2.90192e-06
2.66303e-06
2.00807e-06
1.47362e-06
1.43403e-06
1.64653e-06
1.78225e-06
1.9029e-06
2.08316e-06
2.26728e-06
2.41031e-06
2.50829e-06
2.64878e-06
2.63924e-06
2.66414e-06
2.69124e-06
2.70782e-06
2.71269e-06
2.70857e-06
2.69759e-06
2.70623e-06
2.17991e-06
1.48724e-06
1.03628e-06
1.07582e-06
1.471e-06
1.82515e-06
2.08236e-06
2.29212e-06
2.44931e-06
2.55388e-06
2.62116e-06
2.70563e-06
2.69031e-06
2.71166e-06
2.73601e-06
2.75161e-06
2.757e-06
2.75438e-06
2.74559e-06
2.65005e-06
2.00937e-06
1.32857e-06
8.83117e-07
8.47677e-07
1.23053e-06
1.72703e-06
2.13149e-06
2.40019e-06
2.55658e-06
2.64262e-06
2.6928e-06
2.74512e-06
2.72574e-06
2.7444e-06
2.76692e-06
2.78215e-06
2.78857e-06
2.78804e-06
2.78298e-06
2.67286e-06
1.97048e-06
1.30448e-06
8.85691e-07
8.51737e-07
1.24856e-06
1.79896e-06
2.2384e-06
2.5027e-06
2.63834e-06
2.70538e-06
2.74265e-06
2.7722e-06
2.74963e-06
2.76625e-06
2.78787e-06
2.80341e-06
2.81127e-06
2.81312e-06
2.81207e-06
2.70424e-06
1.9555e-06
1.30487e-06
9.03749e-07
9.26095e-07
1.38123e-06
1.94624e-06
2.36162e-06
2.59118e-06
2.69964e-06
2.74982e-06
2.77723e-06
2.79123e-06
2.76611e-06
2.78103e-06
2.80202e-06
2.81788e-06
2.82694e-06
2.83096e-06
2.83361e-06
2.73755e-06
1.95862e-06
1.35728e-06
1.00761e-06
1.06794e-06
1.53905e-06
2.08177e-06
2.45845e-06
2.65509e-06
2.74271e-06
2.78108e-06
2.80169e-06
2.80441e-06
2.77716e-06
2.79069e-06
2.81133e-06
2.82759e-06
2.83772e-06
2.84371e-06
2.84966e-06
2.75608e-06
1.98969e-06
1.39439e-06
1.01761e-06
1.11138e-06
1.61529e-06
2.15636e-06
2.5155e-06
2.69529e-06
2.77152e-06
2.80281e-06
2.81886e-06
2.81343e-06
2.78439e-06
2.79674e-06
2.81704e-06
2.83349e-06
2.84417e-06
2.85128e-06
2.85916e-06
2.77113e-06
2.00183e-06
1.49778e-06
1.16485e-06
1.24209e-06
1.70861e-06
2.21732e-06
2.55552e-06
2.72264e-06
2.79134e-06
2.81794e-06
2.83082e-06
2.8195e-06
2.78889e-06
2.8002e-06
2.82026e-06
2.83687e-06
2.84795e-06
2.85589e-06
2.86506e-06
2.78155e-06
1.95139e-06
1.36029e-06
1.0605e-06
1.24132e-06
1.75915e-06
2.26778e-06
2.59109e-06
2.74568e-06
2.80685e-06
2.82913e-06
2.8393e-06
2.82326e-06
2.79131e-06
2.80172e-06
2.8215e-06
2.83802e-06
2.84897e-06
2.85637e-06
2.86368e-06
2.78411e-06
1.96561e-06
1.10882e-06
8.51407e-07
1.18854e-06
1.79731e-06
2.32203e-06
2.62913e-06
2.76732e-06
2.81926e-06
2.83708e-06
2.84494e-06
2.82557e-06
2.79226e-06
2.80186e-06
2.82141e-06
2.83785e-06
2.84872e-06
2.85576e-06
2.86228e-06
2.8623e-06
2.60839e-06
2.27868e-06
2.18845e-06
2.33686e-06
2.55363e-06
2.71067e-06
2.79482e-06
2.8298e-06
2.84209e-06
2.84628e-06
2.84948e-06
2.82628e-06
2.79194e-06
2.80088e-06
2.82022e-06
2.83648e-06
2.84709e-06
2.85344e-06
2.85872e-06
2.86234e-06
2.84408e-06
2.81801e-06
2.81361e-06
2.82972e-06
2.84691e-06
2.85322e-06
2.85387e-06
2.85198e-06
2.85062e-06
2.85011e-06
2.85145e-06
2.82588e-06
2.79068e-06
2.79911e-06
2.81829e-06
2.83442e-06
2.84487e-06
2.85074e-06
2.85536e-06
2.8585e-06
2.8589e-06
2.85647e-06
2.85654e-06
2.86057e-06
2.86382e-06
2.86207e-06
2.85844e-06
2.8546e-06
2.85241e-06
2.85128e-06
2.85193e-06
2.82466e-06
2.78872e-06
2.79674e-06
2.8158e-06
2.83178e-06
2.84203e-06
2.84741e-06
2.85145e-06
2.85409e-06
2.8562e-06
2.8567e-06
2.85792e-06
2.86044e-06
2.86211e-06
2.86038e-06
2.85751e-06
2.85434e-06
2.8525e-06
2.85123e-06
2.8514e-06
2.82282e-06
2.78625e-06
2.79397e-06
2.81294e-06
2.8288e-06
2.8389e-06
2.8439e-06
2.84755e-06
2.84979e-06
2.85218e-06
2.85331e-06
2.85505e-06
2.85744e-06
2.85912e-06
2.85812e-06
2.85613e-06
2.85356e-06
2.85194e-06
2.85043e-06
2.85015e-06
2.82045e-06
2.78337e-06
2.79089e-06
2.8098e-06
2.82555e-06
2.83551e-06
2.84013e-06
2.84346e-06
2.84543e-06
2.84809e-06
2.84978e-06
2.85194e-06
2.85422e-06
2.85586e-06
2.85545e-06
2.85419e-06
2.85213e-06
2.85068e-06
2.84891e-06
2.84822e-06
2.81775e-06
2.78024e-06
2.78764e-06
2.80651e-06
2.82215e-06
2.83198e-06
2.83629e-06
2.83937e-06
2.84111e-06
2.84389e-06
2.84584e-06
2.84833e-06
2.85071e-06
2.85254e-06
2.85273e-06
2.85202e-06
2.85033e-06
2.84898e-06
2.84693e-06
2.84589e-06
2.81478e-06
2.77691e-06
2.78427e-06
2.8031e-06
2.81863e-06
2.82834e-06
2.83233e-06
2.83521e-06
2.83676e-06
2.8397e-06
2.84187e-06
2.84467e-06
2.84714e-06
2.84913e-06
2.84984e-06
2.84959e-06
2.84817e-06
2.84689e-06
2.84455e-06
2.8432e-06
2.81166e-06
2.7735e-06
2.78087e-06
2.79966e-06
2.81507e-06
2.82471e-06
2.82835e-06
2.83108e-06
2.83246e-06
2.8355e-06
2.83782e-06
2.84089e-06
2.84354e-06
2.84575e-06
2.84694e-06
2.84708e-06
2.84585e-06
2.84461e-06
2.84198e-06
2.84033e-06
2.80839e-06
2.77003e-06
2.77746e-06
2.7962e-06
2.8115e-06
2.82105e-06
2.82436e-06
2.82695e-06
2.82816e-06
2.83136e-06
2.83382e-06
2.83718e-06
2.83998e-06
2.8424e-06
2.84403e-06
2.8445e-06
2.84344e-06
2.84222e-06
2.83926e-06
2.8373e-06
2.80506e-06
2.76654e-06
2.7741e-06
2.79279e-06
2.80796e-06
2.81744e-06
2.8204e-06
2.82287e-06
2.82392e-06
2.82732e-06
2.8299e-06
2.83355e-06
2.83651e-06
2.83915e-06
2.84121e-06
2.84198e-06
2.84105e-06
2.83984e-06
2.83648e-06
2.83419e-06
2.80172e-06
2.7631e-06
2.77084e-06
2.78945e-06
2.80449e-06
2.81392e-06
2.81649e-06
2.81886e-06
2.81976e-06
2.82336e-06
2.82607e-06
2.82999e-06
2.83314e-06
2.83601e-06
2.83849e-06
2.83955e-06
2.83874e-06
2.83751e-06
2.83369e-06
2.83104e-06
2.79833e-06
2.75971e-06
2.76769e-06
2.7862e-06
2.8011e-06
2.81048e-06
2.81264e-06
2.81488e-06
2.81565e-06
2.81951e-06
2.82234e-06
2.82655e-06
2.82989e-06
2.83297e-06
2.8359e-06
2.83722e-06
2.8365e-06
2.83524e-06
2.83091e-06
2.82788e-06
2.79504e-06
2.75646e-06
2.76475e-06
2.78315e-06
2.79788e-06
2.8072e-06
2.80893e-06
2.81103e-06
2.81167e-06
2.81584e-06
2.81881e-06
2.82336e-06
2.82688e-06
2.8302e-06
2.83361e-06
2.83515e-06
2.83452e-06
2.83321e-06
2.82825e-06
2.82478e-06
2.79168e-06
2.7532e-06
2.76188e-06
2.78013e-06
2.79469e-06
2.80398e-06
2.80521e-06
2.80719e-06
2.80769e-06
2.8122e-06
2.81533e-06
2.82021e-06
2.8239e-06
2.82746e-06
2.83138e-06
2.83314e-06
2.83259e-06
2.8312e-06
2.82553e-06
2.8216e-06
2.78858e-06
2.75033e-06
2.75945e-06
2.77747e-06
2.79185e-06
2.80113e-06
2.8018e-06
2.80361e-06
2.80401e-06
2.80895e-06
2.81226e-06
2.81753e-06
2.82138e-06
2.8252e-06
2.82972e-06
2.8317e-06
2.83119e-06
2.82968e-06
2.82315e-06
2.81869e-06
2.78516e-06
2.74721e-06
2.75688e-06
2.77462e-06
2.78882e-06
2.79814e-06
2.7982e-06
2.79985e-06
2.80014e-06
2.80556e-06
2.80905e-06
2.81471e-06
2.81868e-06
2.82276e-06
2.8279e-06
2.83009e-06
2.82962e-06
2.82796e-06
2.82046e-06
2.81542e-06
2.78242e-06
2.74488e-06
2.75517e-06
2.77255e-06
2.78655e-06
2.79593e-06
2.79529e-06
2.79675e-06
2.79695e-06
2.80294e-06
2.80668e-06
2.81278e-06
2.81688e-06
2.82126e-06
2.82718e-06
2.82959e-06
2.82915e-06
2.82727e-06
2.8186e-06
2.81288e-06
2.7789e-06
2.74191e-06
2.75291e-06
2.76982e-06
2.78369e-06
2.79318e-06
2.7918e-06
2.79307e-06
2.7932e-06
2.79982e-06
2.8038e-06
2.81035e-06
2.8145e-06
2.81917e-06
2.82592e-06
2.8285e-06
2.8281e-06
2.82595e-06
2.81598e-06
2.80956e-06
2.77671e-06
2.74033e-06
2.75215e-06
2.76846e-06
2.78216e-06
2.7918e-06
2.78953e-06
2.79056e-06
2.79061e-06
2.79797e-06
2.80222e-06
2.80933e-06
2.81357e-06
2.81868e-06
2.82652e-06
2.82933e-06
2.82894e-06
2.82647e-06
2.81491e-06
2.80762e-06
2.77282e-06
2.73723e-06
2.74994e-06
2.76559e-06
2.77913e-06
2.78896e-06
2.78574e-06
2.78652e-06
2.78658e-06
2.79472e-06
2.79925e-06
2.80685e-06
2.81105e-06
2.81657e-06
2.82563e-06
2.82872e-06
2.82837e-06
2.8255e-06
2.81218e-06
2.80393e-06
2.77128e-06
2.73665e-06
2.75044e-06
2.76523e-06
2.77858e-06
2.7886e-06
2.78418e-06
2.78467e-06
2.78473e-06
2.7938e-06
2.79861e-06
2.80678e-06
2.81089e-06
2.81696e-06
2.82767e-06
2.83116e-06
2.83085e-06
2.82748e-06
2.81205e-06
2.80269e-06
2.76685e-06
2.73336e-06
2.74811e-06
2.76186e-06
2.77512e-06
2.78528e-06
2.77973e-06
2.78007e-06
2.78025e-06
2.79036e-06
2.79537e-06
2.80399e-06
2.8077e-06
2.81424e-06
2.8266e-06
2.83056e-06
2.83054e-06
2.82655e-06
2.80892e-06
2.79844e-06
2.71887e-06
2.67103e-06
2.685e-06
2.71303e-06
2.7223e-06
2.73013e-06
2.73606e-06
2.7323e-06
2.73169e-06
2.73104e-06
2.73696e-06
2.73471e-06
2.74108e-06
2.73323e-06
2.72584e-06
2.74857e-06
2.75664e-06
2.76284e-06
2.76343e-06
2.75085e-06
1.90823e-07
1.59459e-07
1.9398e-07
2.75943e-07
3.89102e-07
5.14596e-07
6.33289e-07
7.33438e-07
8.09468e-07
8.58651e-07
8.78992e-07
8.6958e-07
8.32165e-07
7.71476e-07
6.93829e-07
6.04805e-07
5.0916e-07
4.11783e-07
3.1824e-07
2.35769e-07
4.97704e-07
6.85094e-07
8.98742e-07
1.09503e-06
1.25799e-06
1.38682e-06
1.48441e-06
1.55296e-06
1.59088e-06
1.58775e-06
1.52862e-06
1.40777e-06
1.23705e-06
1.03956e-06
8.37309e-07
6.4338e-07
4.72204e-07
3.41655e-07
2.82619e-07
3.27871e-07
1.32831e-06
1.54281e-06
1.72121e-06
1.86008e-06
1.96854e-06
2.04412e-06
2.09019e-06
2.11293e-06
2.1133e-06
2.06128e-06
1.91349e-06
1.65902e-06