/*--------------------------------*- C++ -*----------------------------------*\
| =========                 |                                                 |
| \\      /  F ield         | OpenFOAM: The Open Source CFD Toolbox           |
|  \\    /   O peration     | Version:  2.4.0                                 |
|   \\  /    A nd           | Web:      www.OpenFOAM.org                      |
|    \\/     M anipulation  |                                                 |
\*---------------------------------------------------------------------------*/
FoamFile
{
    version     2.0;
    format      ascii;
    class       volScalarField;
    location    "60";
    object      p;
}
// * * * * * * * * * * * * * * * * * * * * * * * * * * * * * * * * * * * * * //

dimensions      [0 2 -2 0 0 0 0];

internalField   nonuniform List<scalar> 
283312
(
-0.00619456
-0.00620431
-0.00639816
-0.00669709
-0.00701393
-0.00728261
-0.00749714
-0.00765345
-0.00778562
-0.00791644
-0.00806471
-0.00821383
-0.00832791
-0.00834809
-0.00823389
-0.00799052
-0.00763197
-0.00719037
-0.00674275
-0.00638537
0.00250749
0.00204357
0.0016266
0.00134437
0.00122056
0.00125762
0.00136577
0.00147091
0.00154671
0.00160284
0.00164099
0.00169435
0.00180111
0.00198813
0.00226574
0.00263905
0.00298097
0.00317626
0.00315663
0.00291345
-0.00197809
-0.00183452
-0.00163686
-0.00142701
-0.00126634
-0.00119598
-0.00119768
-0.00121945
-0.00128604
-0.00134689
-0.00140244
-0.00140897
-0.00136303
-0.00127638
-0.0012165
-0.0012852
-0.00147125
-0.00169946
-0.00190238
-0.00200512
0.00179973
0.00193632
0.00204255
0.00213126
0.00219804
0.00225345
0.00224624
0.00223795
0.00218463
0.00217445
0.0021631
0.00218219
0.00219183
0.00215924
0.00207315
0.00190742
0.00173909
0.00162219
0.00160095
0.00167543
-0.000536217
-0.000368181
-0.000275625
-0.000208564
-0.000211351
-0.00019794
-0.000215439
-0.000208926
-0.000253689
-0.000247741
-0.000287836
-0.000376402
-0.000574935
-0.000863373
-0.00123001
-0.00149679
-0.00152667
-0.0013511
-0.00106532
-0.000770173
0.00137085
0.00145931
0.00150206
0.00154653
0.001558
0.00156606
0.00152266
0.00150181
0.00142173
0.0014163
0.00132934
0.00117407
0.00088572
0.000559396
0.000359965
0.000357393
0.000529484
0.00078922
0.00104296
0.0012429
-3.93678e-05
-1.24881e-05
-1.37671e-05
-7.58528e-06
-1.75001e-05
1.07988e-05
5.36736e-06
3.13244e-05
-1.21224e-05
1.34109e-06
-0.000140398
-0.000438373
-0.000861766
-0.00124032
-0.00132389
-0.0011202
-0.000781398
-0.000461298
-0.000232113
-9.73798e-05
0.000867038
0.000907715
0.00092263
0.000946982
0.000929813
0.000926063
0.000881909
0.000858402
0.000775489
0.000755792
0.0005804
0.000255024
-0.000160455
-0.000323163
-0.000234211
3.48176e-05
0.000335969
0.000568929
0.000722506
0.000815931
7.21609e-05
6.84332e-05
4.93341e-05
4.61743e-05
4.14657e-05
6.62283e-05
6.46198e-05
8.27174e-05
3.98317e-05
3.30108e-05
-0.000170229
-0.000580721
-0.000989872
-0.00105266
-0.000817888
-0.00050391
-0.000230682
-6.06511e-05
3.05464e-05
6.87038e-05
0.000496963
0.000517557
0.000520098
0.000527736
0.000511597
0.000506475
0.000473011
0.000447451
0.000376011
0.000346237
0.000158796
-0.000211958
-0.000467241
-0.000434252
-0.000185116
5.9258e-05
0.000250026
0.000361426
0.000430297
0.000472607
6.62575e-05
6.2207e-05
4.69704e-05
4.87488e-05
4.69392e-05
6.67652e-05
6.557e-05
7.72217e-05
4.28508e-05
5.04605e-05
-0.000128
-0.000559672
-0.000752959
-0.000653541
-0.00039323
-0.000190111
-4.79241e-05
1.95276e-05
5.47723e-05
6.79755e-05
0.00025317
0.000263989
0.000262692
0.000264898
0.000252379
0.00024721
0.000221316
0.000198764
0.000147712
0.000148742
1.41825e-06
-0.000297096
-0.000410261
-0.000283326
-7.91784e-05
5.71641e-05
0.000148841
0.000190059
0.000219332
0.000239617
3.29088e-05
3.27592e-05
2.51204e-05
2.94299e-05
2.73249e-05
4.0402e-05
3.66728e-05
5.30019e-05
3.63732e-05
0.000120819
-8.23667e-06
-0.000383552
-0.000476208
-0.000382116
-0.0002077
-0.000102001
-2.68088e-05
2.00652e-06
2.13587e-05
3.05757e-05
0.000110405
0.000115621
0.000114138
0.000114884
0.000103274
9.49875e-05
7.06087e-05
5.0917e-05
1.81605e-05
5.92632e-05
-5.70012e-06
-0.000196001
-0.000261349
-0.00017574
-5.5197e-05
9.29951e-06
5.826e-05
7.57711e-05
9.20028e-05
0.000102961
5.41177e-06
6.73598e-06
4.84148e-06
9.44018e-06
5.77195e-06
1.17901e-05
5.20351e-06
2.4199e-05
2.53494e-05
0.000181102
0.000142342
-0.000201986
-0.000290901
-0.000263916
-0.00017205
-0.00010851
-5.10608e-05
-2.65491e-05
-7.38641e-06
1.80396e-06
3.56007e-05
3.68109e-05
3.58598e-05
3.56521e-05
2.41572e-05
1.30065e-05
-1.07981e-05
-3.01306e-05
-5.69985e-05
-1.43939e-05
7.81004e-05
-9.2748e-05
-0.000153152
-0.000136879
-7.67783e-05
-4.50296e-05
-4.9904e-06
1.15211e-05
2.60283e-05
3.27382e-05
-1.46501e-05
-1.43614e-05
-1.40295e-05
-1.07396e-05
-1.48623e-05
-1.38565e-05
-2.14788e-05
-1.35643e-05
-2.42227e-05
4.51242e-06
-4.48331e-05
-0.000146291
-0.000154429
-0.000160254
-0.000117767
-9.56434e-05
-5.91958e-05
-4.08901e-05
-2.42959e-05
-1.70409e-05
-5.87494e-06
-7.80141e-06
-8.97214e-06
-9.90149e-06
-1.90995e-05
-2.9447e-05
-4.819e-05
-6.53281e-05
-8.15174e-05
-8.86486e-05
-6.17416e-05
-9.78352e-05
-9.17946e-05
-9.03858e-05
-6.35747e-05
-5.36568e-05
-2.9577e-05
-1.95837e-05
-9.39805e-06
-5.91646e-06
-3.03653e-05
-3.19677e-05
-3.17039e-05
-3.028e-05
-3.34782e-05
-3.39068e-05
-3.84764e-05
-3.54957e-05
-4.03529e-05
-3.71999e-05
-6.4547e-05
-0.000116143
-0.000118886
-0.000132026
-0.000107409
-9.51908e-05
-6.7451e-05
-5.25976e-05
-3.86594e-05
-3.22957e-05
-2.70969e-05
-3.04861e-05
-3.19543e-05
-3.40661e-05
-4.09405e-05
-4.85465e-05
-6.03413e-05
-7.26542e-05
-8.14795e-05
-9.17862e-05
-7.91073e-05
-8.93406e-05
-7.67025e-05
-7.98474e-05
-6.35622e-05
-6.02485e-05
-4.41301e-05
-3.80112e-05
-3.03435e-05
-2.70218e-05
-3.96538e-05
-4.21477e-05
-4.21848e-05
-4.31263e-05
-4.63162e-05
-4.7088e-05
-4.81038e-05
-4.66828e-05
-4.66995e-05
-5.03477e-05
-6.44293e-05
-9.94487e-05
-0.000102918
-0.000115523
-9.87739e-05
-9.10235e-05
-7.11611e-05
-6.03737e-05
-4.86028e-05
-4.20042e-05
-4.04378e-05
-4.40734e-05
-4.51441e-05
-4.85595e-05
-5.41911e-05
-5.95855e-05
-6.54376e-05
-7.31711e-05
-7.669e-05
-8.69893e-05
-8.03921e-05
-8.62437e-05
-7.46497e-05
-7.90524e-05
-6.81583e-05
-6.82812e-05
-5.8153e-05
-5.37921e-05
-4.61065e-05
-4.12492e-05
-4.97098e-05
-5.31546e-05
-5.33531e-05
-5.64245e-05
-6.00731e-05
-6.1598e-05
-6.04872e-05
-5.97149e-05
-5.61458e-05
-6.30999e-05
-6.96365e-05
-9.60036e-05
-9.85996e-05
-0.000110571
-0.000100659
-9.73898e-05
-8.33727e-05
-7.34116e-05
-6.10515e-05
-5.30743e-05
-5.03033e-05
-5.45696e-05
-5.5754e-05
-6.068e-05
-6.58755e-05
-7.01931e-05
-7.18173e-05
-7.67362e-05
-7.50038e-05
-8.42552e-05
-7.93846e-05
-8.70142e-05
-7.94893e-05
-8.82703e-05
-8.35426e-05
-8.60794e-05
-7.81057e-05
-7.12788e-05
-6.07967e-05
-5.34295e-05
-5.33238e-05
-5.76884e-05
-5.87361e-05
-6.41622e-05
-6.86529e-05
-7.0969e-05
-6.91978e-05
-6.95772e-05
-6.23315e-05
-6.94485e-05
-7.03522e-05
-9.21294e-05
-9.49603e-05
-0.000109359
-0.00010591
-0.000104955
-9.34218e-05
-8.21022e-05
-6.81659e-05
-5.86272e-05
-5.08491e-05
-5.555e-05
-5.72906e-05
-6.40472e-05
-6.9325e-05
-7.28126e-05
-7.26057e-05
-7.66087e-05
-7.00202e-05
-7.86586e-05
-7.28349e-05
-8.52395e-05
-8.20418e-05
-9.46723e-05
-9.35589e-05
-9.49875e-05
-8.68643e-05
-7.75613e-05
-6.50496e-05
-5.6047e-05
-5.44023e-05
-5.96878e-05
-6.10692e-05
-6.8147e-05
-7.27898e-05
-7.53429e-05
-7.32267e-05
-7.63454e-05
-6.73227e-05
-7.58354e-05
-7.32671e-05
-9.41588e-05
-9.66856e-05
-0.000111919
-0.000109615
-0.000107856
-9.71354e-05
-8.46359e-05
-6.99403e-05
-5.98137e-05
-5.85462e-05
-6.58956e-05
-6.71526e-05
-7.3907e-05
-7.85654e-05
-8.06915e-05
-7.92212e-05
-8.51548e-05
-7.73751e-05
-8.91306e-05
-8.36434e-05
-0.000101063
-9.97321e-05
-0.000113759
-0.000112704
-0.000111686
-0.00010275
-8.92631e-05
-7.36874e-05
-6.40538e-05
-6.88988e-05
-7.84645e-05
-7.99593e-05
-8.6876e-05
-9.01688e-05
-9.0205e-05
-8.82508e-05
-9.57093e-05
-8.75095e-05
-0.000102704
-9.80148e-05
-0.000121076
-0.000122094
-0.000138891
-0.000138375
-0.000135225
-0.000123546
-0.000105197
-8.61965e-05
-7.49867e-05
-7.7144e-05
-8.9295e-05
-9.10875e-05
-9.76942e-05
-9.98098e-05
-9.85848e-05
-9.58766e-05
-0.000107181
-0.000100669
-0.000119354
-0.000112938
-0.000134716
-0.000134472
-0.000154556
-0.000156723
-0.00015458
-0.000142095
-0.000119107
-9.66361e-05
-8.39793e-05
-8.15824e-05
-9.77026e-05
-9.95771e-05
-0.000106574
-0.00010854
-0.000104519
-0.00010191
-0.000115534
-0.000109288
-0.00013203
-0.000123666
-0.000148902
-0.000149815
-0.000174429
-0.000178668
-0.000174977
-0.000160906
-0.000131772
-0.00010514
-9.13952e-05
-7.97709e-05
-9.73932e-05
-9.93098e-05
-0.000106678
-0.000108663
-0.000102596
-9.96925e-05
-0.00011782
-0.00011131
-0.000137748
-0.000125183
-0.000150752
-0.000150107
-0.000179329
-0.000186391
-0.000181777
-0.000166772
-0.000134417
-0.000106199
-9.14411e-05
-7.12697e-05
-9.10805e-05
-9.13696e-05
-0.000100134
-0.000103031
-9.58915e-05
-9.39865e-05
-0.000114244
-0.00010691
-0.000136003
-0.000119613
-0.000145906
-0.000142707
-0.000174699
-0.000180779
-0.000174563
-0.000160219
-0.000126215
-9.88915e-05
-8.47858e-05
-5.94016e-05
-8.17482e-05
-7.76721e-05
-8.56561e-05
-9.37772e-05
-8.36307e-05
-8.215e-05
-0.000107796
-9.62967e-05
-0.000129914
-0.000106794
-0.000134336
-0.000124746
-0.000158212
-0.000163012
-0.000152316
-0.000143051
-0.000109775
-8.53851e-05
-7.63688e-05
-4.64069e-05
-6.80927e-05
-6.09578e-05
-7.10348e-05
-7.93095e-05
-7.06939e-05
-7.13119e-05
-9.72116e-05
-8.32365e-05
-0.000119672
-9.22215e-05
-0.000119641
-0.00010162
-0.000132164
-0.000130737
-0.000119471
-0.000114299
-8.56731e-05
-6.8407e-05
-6.18604e-05
-3.49719e-05
-6.26328e-05
-4.5793e-05
-5.56348e-05
-7.39282e-05
-5.78793e-05
-5.96604e-05
-9.42474e-05
-6.93737e-05
-0.000115219
-7.80117e-05
-0.000110939
-7.84144e-05
-0.000108011
-0.00010064
-8.28569e-05
-9.05757e-05
-6.31853e-05
-5.3088e-05
-5.72296e-05
-2.71653e-05
-5.26787e-05
-3.46001e-05
-4.61948e-05
-6.23281e-05
-4.94027e-05
-5.34585e-05
-8.4673e-05
-5.98884e-05
-0.000107046
-6.93855e-05
-0.000100584
-5.84038e-05
-7.80538e-05
-6.25527e-05
-4.90047e-05
-6.26855e-05
-4.22987e-05
-4.03505e-05
-4.68541e-05
-2.12698e-05
-6.33161e-05
-2.56362e-05
-4.01708e-05
-7.44195e-05
-4.04599e-05
-4.88476e-05
-9.9137e-05
-4.87636e-05
-0.000119487
-6.02172e-05
-0.000110884
-4.30128e-05
-6.83173e-05
-4.24016e-05
-2.34988e-05
-5.81328e-05
-2.83496e-05
-3.46976e-05
-5.75626e-05
-2.25522e-05
-5.86503e-05
-2.65738e-05
-4.248e-05
-6.85352e-05
-4.17551e-05
-5.17013e-05
-9.3254e-05
-5.06875e-05
-0.000115916
-6.31917e-05
-0.000107106
-4.07429e-05
-4.82251e-05
-1.80414e-05
-1.56518e-05
-4.52942e-05
-2.44284e-05
-3.48562e-05
-5.31051e-05
-1.2849e-05
-9.0575e-05
-1.35417e-05
-4.57675e-05
-0.000108604
-2.628e-05
-5.50567e-05
-0.000136721
-3.47252e-05
-0.000153664
-4.83369e-05
-0.000141771
-2.86927e-05
-7.12083e-05
-1.63133e-05
-4.80075e-06
-6.95118e-05
-1.1859e-05
-3.78511e-05
-8.44633e-05
-0.0105857
-0.0101664
-0.00985291
-0.00964655
-0.00954056
-0.009539
-0.00966859
-0.00990971
-0.0102591
-0.010695
-0.011197
-0.0117133
-0.0121784
-0.0125112
-0.0126529
-0.0126123
-0.0124043
-0.0120426
-0.0115768
-0.0110727
0.00292296
0.00288616
0.00273866
0.00254846
0.00236562
0.00224739
0.00214613
0.00202964
0.0018753
0.00169027
0.00145999
0.00121532
0.00101347
0.000920814
0.000994293
0.00128845
0.00171335
0.00216391
0.00255272
0.00281475
-0.00185051
-0.0016168
-0.00145037
-0.00133863
-0.00131734
-0.00139633
-0.001544
-0.00171448
-0.00195881
-0.0022437
-0.00260736
-0.00298681
-0.00330896
-0.00348085
-0.00349092
-0.00337142
-0.00313265
-0.00279982
-0.00245122
-0.00212804
0.00340422
0.00344007
0.00343031
0.00342333
0.00341152
0.00339475
0.00330571
0.00320009
0.0029964
0.00276664
0.00240017
0.00200263
0.00168288
0.00156968
0.00174081
0.00207332
0.00249024
0.00286416
0.00314071
0.00331742
-8.70052e-05
3.03022e-05
7.60307e-05
0.000110581
6.67216e-05
4.985e-05
-2.54049e-05
-9.21933e-05
-0.000280633
-0.000510664
-0.000972264
-0.00151126
-0.00196021
-0.00216005
-0.00213001
-0.0018772
-0.00144842
-0.000983987
-0.000579
-0.000276275
0.00233495
0.00240792
0.0024369
0.00248117
0.00247363
0.0024614
0.0023596
0.00226652
0.00203579
0.00177959
0.00122511
0.000659174
0.000273655
0.000244323
0.000524128
0.000962379
0.00140867
0.00178251
0.00205459
0.00223507
0.000278204
0.000300667
0.000290563
0.00029478
0.000273502
0.000296606
0.000252202
0.000230768
5.35243e-05
-0.000183831
-0.000827228
-0.00149827
-0.00190846
-0.00193381
-0.00158562
-0.00106121
-0.000547677
-0.000156125
9.47824e-05
0.000230075
0.00144
0.00149338
0.00151121
0.00154276
0.00150986
0.00149277
0.00140025
0.00132061
0.0010998
0.000824356
0.000148058
-0.000454751
-0.000725448
-0.000510983
-7.37157e-05
0.000397021
0.000801568
0.00108385
0.00126708
0.00137895
0.000287919
0.000286015
0.000259392
0.000258123
0.000244708
0.0002709
0.000240984
0.000224716
6.70194e-05
-0.000179531
-0.00087173
-0.00149304
-0.00170005
-0.00141564
-0.000908409
-0.000453798
-9.947e-05
0.000113822
0.000232499
0.0002834
0.000801722
0.000833509
0.000836371
0.000848237
0.000821465
0.000810833
0.000743102
0.000675456
0.000492667
0.000238038
-0.00039511
-0.00087573
-0.000872615
-0.000552156
-0.000112613
0.000215127
0.000461587
0.000606549
0.000704224
0.000765949
0.000159181
0.000158688
0.000138357
0.000144711
0.000139239
0.000165389
0.000146109
0.000136819
1.86841e-05
-0.000158719
-0.000734357
-0.00123559
-0.00117034
-0.000847974
-0.000448094
-0.000191749
-8.52453e-06
7.96699e-05
0.000133734
0.000157227
0.000357752
0.000377105
0.000375451
0.000381368
0.000361789
0.000355171
0.000306382
0.000257756
0.00013471
-2.30578e-05
-0.000498698
-0.000776748
-0.00065418
-0.000364371
-7.26537e-05
8.66383e-05
0.00020308
0.000255749
0.000301675
0.000334661
1.79054e-05
2.27042e-05
1.32601e-05
2.24952e-05
1.72473e-05
3.55417e-05
1.95138e-05
3.08916e-05
-2.94142e-05
-4.0972e-05
-0.000434624
-0.000802355
-0.000708762
-0.000519965
-0.000287761
-0.000173667
-7.81944e-05
-4.20957e-05
-9.15243e-06
9.18125e-06
8.61153e-05
9.72061e-05
9.58317e-05
9.92669e-05
8.02698e-05
6.82626e-05
2.5118e-05
-8.75567e-06
-7.77132e-05
-0.000113673
-0.000358255
-0.0004841
-0.00040922
-0.000268278
-0.000120227
-6.27333e-05
-9.29358e-07
2.09008e-05
5.03809e-05
7.08859e-05
-7.93602e-05
-7.4191e-05
-7.58246e-05
-6.76124e-05
-7.62916e-05
-6.99448e-05
-8.77576e-05
-6.5096e-05
-7.70528e-05
6.85367e-05
-8.296e-05
-0.000455281
-0.000465839
-0.00042889
-0.000318015
-0.000256808
-0.000178042
-0.000143224
-0.000107678
-8.91886e-05
-5.8745e-05
-5.51173e-05
-5.61475e-05
-5.56425e-05
-7.57943e-05
-9.44209e-05
-0.000136101
-0.000165473
-0.000210646
-0.000163148
-6.69831e-05
-0.000314317
-0.000356156
-0.00033631
-0.000248091
-0.000210416
-0.000143292
-0.000113304
-8.16599e-05
-6.66061e-05
-0.000138806
-0.000137574
-0.000137203
-0.000132737
-0.000142866
-0.000145445
-0.000163879
-0.000155393
-0.000175842
-0.000134042
-0.000215611
-0.000387481
-0.000384823
-0.000400913
-0.000331112
-0.000300283
-0.000232711
-0.000197093
-0.000161214
-0.000145472
-0.000137418
-0.000140567
-0.000143073
-0.000145364
-0.000162461
-0.000180885
-0.000213763
-0.000239646
-0.000265847
-0.000272433
-0.000242233
-0.000320733
-0.000305236
-0.000314348
-0.000267212
-0.000252362
-0.000201674
-0.000177299
-0.000150355
-0.00014026
-0.000175824
-0.000179434
-0.000180538
-0.000180458
-0.000188954
-0.000193374
-0.000204807
-0.000202361
-0.00021072
-0.000205679
-0.000248761
-0.000344186
-0.000343138
-0.000373286
-0.000330164
-0.000312492
-0.000257574
-0.000227046
-0.000195311
-0.000181283
-0.000175412
-0.000182134
-0.000186132
-0.00019178
-0.000205113
-0.00021891
-0.000238613
-0.000256516
-0.000268752
-0.000283133
-0.000268339
-0.000302023
-0.000281982
-0.000299556
-0.000269877
-0.000265406
-0.000228368
-0.000211084
-0.000188505
-0.000178445
-0.00019406
-0.000199894
-0.00020221
-0.000207062
-0.000215104
-0.000218939
-0.000221818
-0.000219942
-0.000218421
-0.000225497
-0.000247455
-0.000313854
-0.000316991
-0.000347213
-0.000317725
-0.00030777
-0.000267297
-0.000244476
-0.000216311
-0.00020108
-0.00019671
-0.000204338
-0.000208248
-0.000217308
-0.000228665
-0.000238461
-0.000246482
-0.00025646
-0.000258601
-0.000275822
-0.000268397
-0.000292765
-0.000276589
-0.000296182
-0.000276662
-0.000278803
-0.000253456
-0.00023973
-0.000216534
-0.000202583
-0.000209077
-0.000216582
-0.00021952
-0.000229054
-0.000237776
-0.000242049
-0.000239205
-0.000236815
-0.000227866
-0.000241572
-0.000252374
-0.000305021
-0.000309394
-0.000339802
-0.000323312
-0.000321804
-0.000292137
-0.00027012
-0.000239308
-0.000219654
-0.000207846
-0.000216545
-0.000221148
-0.000234308
-0.000245395
-0.000253433
-0.000253516
-0.000258498
-0.000250679
-0.000267878
-0.000262262
-0.00028904
-0.000281217
-0.000308999
-0.000302097
-0.000309579
-0.000288674
-0.000269767
-0.000239992
-0.000219548
-0.000207497
-0.000216371
-0.0002212
-0.000236179
-0.00024655
-0.00025182
-0.000246694
-0.000245269
-0.000228555
-0.000243099
-0.000245179
-0.000292359
-0.000300307
-0.000337233
-0.000333728
-0.000336676
-0.000310826
-0.000284426
-0.000248472
-0.000223532
-0.000199235
-0.000208838
-0.000214954
-0.000232689
-0.000244214
-0.000250884
-0.000247543
-0.000251311
-0.000234577
-0.000251755
-0.000244237
-0.00027986
-0.000281318
-0.000317592
-0.000318565
-0.000324573
-0.000302942
-0.000277585
-0.000241931
-0.000216253
-0.000200854
-0.000211991
-0.000217951
-0.000236694
-0.000246989
-0.000251785
-0.000245558
-0.000248828
-0.000228706
-0.000247193
-0.000244512
-0.000293616
-0.00030429
-0.00034543
-0.000345462
-0.000346613
-0.000320617
-0.000288534
-0.000247764
-0.000219012
-0.00020548
-0.000220901
-0.000227111
-0.000245718
-0.000255164
-0.000258183
-0.000252581
-0.000261023
-0.000243318
-0.000268732
-0.000262507
-0.000309003
-0.000315825
-0.000357405
-0.000360285
-0.000362089
-0.000337087
-0.00029994
-0.000254814
-0.000224731
-0.000219975
-0.000240409
-0.000247672
-0.000266704
-0.000272888
-0.000271296
-0.000264795
-0.000277166
-0.00026043
-0.000293748
-0.000289087
-0.000345326
-0.000356749
-0.000405108
-0.000410691
-0.00040958
-0.000378884
-0.000330153
-0.000276258
-0.000241362
-0.000228571
-0.000254834
-0.000263354
-0.000282446
-0.000285562
-0.00028005
-0.000272448
-0.000292455
-0.000279726
-0.000321288
-0.000313883
-0.00037026
-0.000381381
-0.000438536
-0.000450413
-0.000450754
-0.000416705
-0.000355992
-0.000292909
-0.000252986
-0.000227708
-0.000261372
-0.000270677
-0.000290945
-0.000292614
-0.000281108
-0.000273803
-0.000299577
-0.00028898
-0.000339252
-0.000327917
-0.000390222
-0.000403855
-0.000471762
-0.000489091
-0.00048735
-0.000449255
-0.000375117
-0.000302718
-0.00025844
-0.000210167
-0.000247436
-0.000256571
-0.000278322
-0.000279545
-0.000263365
-0.000256393
-0.000291022
-0.000281103
-0.000339331
-0.000319664
-0.000383078
-0.000394011
-0.000472026
-0.000494437
-0.000490998
-0.000451001
-0.000369299
-0.000293208
-0.000245784
-0.000179649
-0.000220661
-0.000226128
-0.000250543
-0.000253403
-0.000234516
-0.000229996
-0.00027007
-0.00025941
-0.000323787
-0.000295553
-0.000359662
-0.000364349
-0.000447836
-0.000468315
-0.000461815
-0.000424014
-0.000339684
-0.000266017
-0.000219494
-0.000138975
-0.000183776
-0.000180298
-0.000204678
-0.000215774
-0.000191908
-0.000189837
-0.000239371
-0.00022219
-0.000295519
-0.000254044
-0.000319176
-0.000309249
-0.000393758
-0.000409143
-0.000395667
-0.00036863
-0.000287742
-0.000222535
-0.000184919
-9.96894e-05
-0.000143731
-0.000131973
-0.000159822
-0.000172893
-0.00015027
-0.000152981
-0.000204858
-0.000182441
-0.000262939
-0.000211471
-0.000275602
-0.000245364
-0.000322044
-0.000323835
-0.000308951
-0.000293803
-0.000223764
-0.0001749
-0.000144533
-6.17098e-05
-0.000114186
-8.43456e-05
-0.000113202
-0.000141345
-0.000107277
-0.000114306
-0.000179231
-0.000139274
-0.000236787
-0.000168073
-0.000239354
-0.000178056
-0.000247087
-0.000233824
-0.000211425
-0.000222061
-0.000159209
-0.000128558
-0.000117194
-3.71874e-05
-8.81651e-05
-5.12127e-05
-8.35117e-05
-0.000110753
-7.82597e-05
-9.08575e-05
-0.000153233
-0.000109422
-0.000214497
-0.000140785
-0.000210869
-0.000123741
-0.000171767
-0.00014053
-0.000126887
-0.000154772
-0.000105964
-9.44804e-05
-9.14452e-05
-1.57851e-05
-9.09831e-05
-2.21449e-05
-6.09824e-05
-0.000113487
-4.88131e-05
-7.09351e-05
-0.000160043
-7.74525e-05
-0.00022081
-0.000113534
-0.000212505
-7.87936e-05
-0.00012637
-7.39971e-05
-6.02494e-05
-0.000124388
-6.62297e-05
-7.37519e-05
-9.60676e-05
-1.25263e-05
-8.34694e-05
-1.66534e-05
-5.98142e-05
-0.00010329
-4.29637e-05
-7.0405e-05
-0.000150216
-7.2267e-05
-0.000215674
-0.00011112
-0.000205537
-6.33291e-05
-8.07438e-05
-1.67104e-05
-3.28666e-05
-9.6446e-05
-5.12282e-05
-7.00553e-05
-8.95701e-05
5.46033e-06
-0.000124362
7.80178e-06
-6.16163e-05
-0.000153543
-1.3893e-05
-7.12503e-05
-0.000204453
-4.2811e-05
-0.000264875
-8.4728e-05
-0.000251144
-4.01242e-05
-0.000102156
-8.79308e-07
-1.26086e-05
-0.00012586
-3.08451e-05
-7.49036e-05
-0.000131572
-0.012929
-0.0123472
-0.0118882
-0.0115671
-0.0113895
-0.01138
-0.0115505
-0.0118784
-0.0123552
-0.0129477
-0.0136219
-0.0143086
-0.0149238
-0.0153693
-0.0155722
-0.0155375
-0.015284
-0.014831
-0.0142373
-0.0135804
0.0027367
0.00280689
0.00272631
0.00256279
0.00237394
0.00222472
0.00205078
0.00183876
0.00156552
0.00124323
0.000862123
0.00046747
0.000138227
-3.59005e-05
2.07808e-05
0.000363509
0.000896864
0.0014983
0.00205751
0.00248633
-0.00206929
-0.00175665
-0.00155626
-0.0014449
-0.00146159
-0.00159427
-0.00181467
-0.0020807
-0.00244929
-0.00288467
-0.00342627
-0.00398565
-0.00445414
-0.00469847
-0.00470038
-0.00447118
-0.0040527
-0.00351169
-0.00296257
-0.00247062
0.0040581
0.00411212
0.00409749
0.00407481
0.0040334
0.00397067
0.00381826
0.00362888
0.00330441
0.00292094
0.00235723
0.00176685
0.00131997
0.00119789
0.00149147
0.00201516
0.00265084
0.0032218
0.00364817
0.0039218
0.000243782
0.000372694
0.00041522
0.000437837
0.000370989
0.000327837
0.000200661
6.10387e-05
-0.000248241
-0.000643186
-0.00133485
-0.0020909
-0.00264883
-0.00282695
-0.00264073
-0.00216518
-0.00151485
-0.000872793
-0.000348398
2.30571e-05
0.00291923
0.00300669
0.00303886
0.00308445
0.00305773
0.00302154
0.00286678
0.00270186
0.0023463
0.00191656
0.00110832
0.000336281
-0.000113254
-3.01742e-05
0.000444236
0.00109398
0.00171675
0.00221682
0.00256921
0.00279617
0.000608637
0.000640885
0.00063207
0.000636596
0.000606984
0.000615916
0.000529125
0.000448059
0.000152157
-0.000261308
-0.00118177
-0.00205378
-0.00249364
-0.00237294
-0.00181555
-0.00109474
-0.000429143
6.43899e-05
0.000377623
0.000546382
0.00184282
0.00191075
0.00193531
0.00197222
0.00192872
0.00189543
0.00175909
0.00161948
0.00128149
0.000828734
-0.000126212
-0.000894909
-0.00113111
-0.00076102
-0.000128333
0.000498936
0.00102355
0.00138701
0.00162283
0.00176515
0.000526042
0.000533428
0.000510255
0.000516963
0.000499064
0.000518588
0.000455631
0.00039219
0.000130077
-0.00028446
-0.00125297
-0.00201778
-0.00215291
-0.00170074
-0.00101958
-0.000437552
1.25853e-05
0.000287406
0.000443796
0.000513662
0.00103226
0.00107584
0.00108523
0.00110576
0.00107522
0.00105816
0.000959631
0.000848181
0.000570935
0.000163169
-0.000725352
-0.00130239
-0.00119985
-0.00072782
-0.000149083
0.000272455
0.000591407
0.000782159
0.00090955
0.000987374
0.000279991
0.000287903
0.000272025
0.00028874
0.000283333
0.000310112
0.000270232
0.00023238
4.0173e-05
-0.000262118
-0.00106853
-0.00164418
-0.00146766
-0.00101935
-0.000509464
-0.000186357
4.98522e-05
0.000168199
0.000241319
0.000273577
0.000445268
0.000473495
0.000476474
0.000490481
0.000469225
0.000461997
0.000395273
0.000324263
0.000144033
-0.000112546
-0.000780865
-0.00108733
-0.000863841
-0.000477615
-0.000109033
9.17159e-05
0.000244687
0.00031661
0.000376443
0.000416789
3.73284e-05
4.8927e-05
4.23898e-05
5.90912e-05
5.27469e-05
7.38548e-05
4.72657e-05
5.18017e-05
-4.41087e-05
-0.000113
-0.000665155
-0.00106263
-0.000886738
-0.000638654
-0.000353209
-0.000215233
-9.27394e-05
-4.37009e-05
1.55803e-07
2.42419e-05
7.55173e-05
9.21867e-05
9.22962e-05
0.0001001
7.701e-05
6.44907e-05
1.07784e-05
-2.85734e-05
-0.000120637
-0.00019421
-0.000545985
-0.000674801
-0.000540345
-0.000366058
-0.000188434
-0.00012206
-4.15859e-05
-1.07652e-05
2.89396e-05
5.56102e-05
-0.000126945
-0.000117915
-0.000119446
-0.000108297
-0.000121402
-0.000114295
-0.000138206
-0.000109865
-0.000128825
1.88976e-05
-0.000205057
-0.000623471
-0.000599431
-0.000556471
-0.000425017
-0.000359047
-0.00026109
-0.000215548
-0.000167385
-0.000141395
-0.000125142
-0.00011951
-0.000122367
-0.000122036
-0.00014934
-0.000171123
-0.000221272
-0.000249652
-0.000300688
-0.000245062
-0.00016223
-0.000464771
-0.000494843
-0.000477415
-0.000373143
-0.00033267
-0.000247035
-0.000205677
-0.000160201
-0.000137105
-0.000223955
-0.000222145
-0.000224652
-0.000221774
-0.000239012
-0.000244018
-0.00026781
-0.000253606
-0.000274495
-0.000220586
-0.000324076
-0.000543624
-0.000535999
-0.000564047
-0.000480815
-0.00044846
-0.000361174
-0.0003119
-0.00025982
-0.000234779
-0.000233365
-0.000237606
-0.000244517
-0.000250704
-0.000276414
-0.000299869
-0.000339808
-0.000364747
-0.000391197
-0.000391341
-0.000362093
-0.00047248
-0.000452961
-0.000475597
-0.000419971
-0.000406325
-0.000338626
-0.000301778
-0.000259034
-0.000239865
-0.000281318
-0.000286793
-0.000292798
-0.000297542
-0.000313934
-0.000322264
-0.000337644
-0.000331513
-0.000336882
-0.000325674
-0.000375844
-0.000502107
-0.000500205
-0.000547048
-0.000496208
-0.000479365
-0.000407059
-0.000363288
-0.000314942
-0.000291015
-0.000286985
-0.000296387
-0.000305884
-0.000317729
-0.000339432
-0.000358275
-0.000382401
-0.000399686
-0.000409287
-0.000421385
-0.000404579
-0.000457514
-0.000434968
-0.000468301
-0.000433587
-0.000431819
-0.00038041
-0.000352096
-0.000314203
-0.000294452
-0.000311552
-0.000320183
-0.000327783
-0.000339264
-0.000354842
-0.000362548
-0.00036702
-0.000362705
-0.000356481
-0.000362531
-0.000386699
-0.000475673
-0.000479559
-0.000526311
-0.000491395
-0.000482872
-0.0004281
-0.00039407
-0.000350055
-0.000324148
-0.000318492
-0.000329094
-0.00033816
-0.000354665
-0.000373685
-0.000387834
-0.000397281
-0.0004066
-0.000404594
-0.000423931
-0.000415114
-0.000455663
-0.000438685
-0.000473631
-0.000450398
-0.000455491
-0.000418466
-0.000394855
-0.000356083
-0.000330869
-0.000333897
-0.000344186
-0.000351869
-0.000369445
-0.00038556
-0.000393613
-0.000390235
-0.000386047
-0.000371321
-0.000388572
-0.000400735
-0.000473404
-0.000479773
-0.000526169
-0.000506285
-0.000507073
-0.000465768
-0.000432821
-0.000385075
-0.000352691
-0.000332641
-0.0003439
-0.000353055
-0.000375279
-0.0003942
-0.000406488
-0.000405742
-0.000409792
-0.000395727
-0.000418147
-0.000412052
-0.000456051
-0.000449858
-0.000494074
-0.00048596
-0.000497037
-0.00046591
-0.000435907
-0.000388496
-0.000354142
-0.000330739
-0.000341935
-0.00035105
-0.00037599
-0.000394431
-0.000403823
-0.000396749
-0.0003937
-0.000368813
-0.000389207
-0.000391932
-0.000459813
-0.000472156
-0.000527181
-0.000523611
-0.000529588
-0.000493052
-0.000453959
-0.000398794
-0.000358386
-0.000320243
-0.000332262
-0.000342519
-0.000371067
-0.000390879
-0.000401645
-0.000395883
-0.000398507
-0.000372629
-0.000396935
-0.000389135
-0.000445752
-0.000452679
-0.000508898
-0.000511749
-0.000521189
-0.000489055
-0.000449538
-0.000393087
-0.000350383
-0.000321542
-0.000335807
-0.000345839
-0.000375946
-0.000394195
-0.0004023
-0.000392627
-0.000394925
-0.000364705
-0.000392002
-0.000390133
-0.000463961
-0.000482898
-0.000546595
-0.00054988
-0.000553991
-0.000516374
-0.000466896
-0.000402334
-0.000354405
-0.000326219
-0.000346277
-0.000356845
-0.000387261
-0.000403929
-0.000408807
-0.000398972
-0.00040745
-0.000379648
-0.000416737
-0.000411587
-0.000485337
-0.000502433
-0.000569987
-0.000578763
-0.000583971
-0.00054619
-0.000487212
-0.000414227
-0.000362174
-0.000339873
-0.000366911
-0.000379237
-0.000410679
-0.000422893
-0.000420995
-0.000409383
-0.000423275
-0.000396732
-0.000445114
-0.000442117
-0.00052945
-0.000553875
-0.000632888
-0.000647471
-0.000649967
-0.000604313
-0.000527831
-0.000440959
-0.000380499
-0.000342321
-0.000377305
-0.000391652
-0.000423932
-0.000431848
-0.000423665
-0.000410344
-0.000434102
-0.000412293
-0.000472377
-0.000466028
-0.000556265
-0.0005826
-0.000676041
-0.000700539
-0.000704979
-0.000653937
-0.000559363
-0.000458233
-0.000388882
-0.000329197
-0.000373666
-0.000389078
-0.000423372
-0.000429111
-0.000412478
-0.000399397
-0.000431676
-0.000412561
-0.000484785
-0.000472757
-0.000571664
-0.000601986
-0.000711555
-0.000744161
-0.000746155
-0.000689558
-0.000576272
-0.000461854
-0.000385137
-0.000292618
-0.00034209
-0.000356595
-0.000393173
-0.000398155
-0.000374789
-0.000362674
-0.000407108
-0.000389039
-0.000472464
-0.000449011
-0.000550701
-0.000577947
-0.000701738
-0.000740373
-0.000739757
-0.000680988
-0.000557032
-0.000437355
-0.000355752
-0.000239883
-0.000294383
-0.000302922
-0.000342625
-0.00034979
-0.000322019
-0.000313631
-0.000367157
-0.000348192
-0.000441269
-0.00040525
-0.00050861
-0.000526573
-0.000657631
-0.000692742
-0.000687412
-0.000632465
-0.00050506
-0.000388865
-0.000308843
-0.000176007
-0.00023541
-0.000231217
-0.000270901
-0.000287408
-0.000252924
-0.000248909
-0.000315731
-0.000289581
-0.00039578
-0.000341933
-0.000446603
-0.000443947
-0.000575331
-0.000601753
-0.000587605
-0.000547068
-0.000424308
-0.000320261
-0.000251986
-0.000117088
-0.000177102
-0.0001598
-0.000202958
-0.000222546
-0.000187442
-0.000190544
-0.000263655
-0.000230762
-0.00034951
-0.000280733
-0.000384558
-0.00035239
-0.000473244
-0.000480773
-0.000463957
-0.000440468
-0.000330864
-0.000248852
-0.000192376
-6.33905e-05
-0.000133984
-9.28015e-05
-0.000136845
-0.00017311
-0.000123447
-0.000133555
-0.000223934
-0.000171321
-0.0003136
-0.00022258
-0.000333953
-0.000259501
-0.000368784
-0.00035577
-0.000331013
-0.000339845
-0.000239455
-0.000182279
-0.000150454
-2.91651e-05
-0.000101309
-4.70243e-05
-9.48602e-05
-0.000131522
-7.96732e-05
-9.82888e-05
-0.00019015
-0.000130653
-0.000288323
-0.000186803
-0.000298397
-0.000185533
-0.000269667