/*--------------------------------*- C++ -*----------------------------------*\
| =========                 |                                                 |
| \\      /  F ield         | OpenFOAM: The Open Source CFD Toolbox           |
|  \\    /   O peration     | Version:  2.4.0                                 |
|   \\  /    A nd           | Web:      www.OpenFOAM.org                      |
|    \\/     M anipulation  |                                                 |
\*---------------------------------------------------------------------------*/
FoamFile
{
    version     2.0;
    format      ascii;
    class       volScalarField;
    location    "510";
    object      p;
}
// * * * * * * * * * * * * * * * * * * * * * * * * * * * * * * * * * * * * * //

dimensions      [0 2 -2 0 0 0 0];

internalField   nonuniform List<scalar> 
283312
(
-0.00626925
-0.0063275
-0.00656704
-0.00690788
-0.00726203
-0.00756033
-0.00779461
-0.00795939
-0.00808681
-0.00820017
-0.00831953
-0.00843141
-0.00850376
-0.00848084
-0.00832949
-0.00805687
-0.00767377
-0.00721719
-0.00676851
-0.00642608
0.0021529
0.00164897
0.00122069
0.000949357
0.000848113
0.000911981
0.00105362
0.00119362
0.00130376
0.00139147
0.00145903
0.00153818
0.00166693
0.00186793
0.00215442
0.0025254
0.00284255
0.00299578
0.00292112
0.00261696
-0.00230076
-0.00215159
-0.00192981
-0.00169082
-0.00149952
-0.00140353
-0.00138627
-0.00139393
-0.00144455
-0.00148798
-0.00151994
-0.00149956
-0.00142764
-0.00132595
-0.00127678
-0.00137935
-0.00161534
-0.00190599
-0.00216634
-0.00230982
0.00148377
0.00165522
0.00179826
0.00191265
0.00199545
0.00206384
0.00207037
0.00207626
0.00204236
0.0020522
0.00206857
0.002116
0.00214676
0.00210852
0.00198595
0.00174934
0.00150202
0.00131928
0.00126391
0.00133639
-0.000743937
-0.000546323
-0.000430138
-0.000352421
-0.000349656
-0.000337529
-0.000349679
-0.000336721
-0.000367474
-0.000345606
-0.000356042
-0.00041197
-0.00058587
-0.000896177
-0.00131445
-0.00165053
-0.00174232
-0.00160441
-0.00132268
-0.00100888
0.00120479
0.00131395
0.00137155
0.00141695
0.00143055
0.00143774
0.0014031
0.00138976
0.00132497
0.00133377
0.00127636
0.00115163
0.000879042
0.00052577
0.00026472
0.000194394
0.000321212
0.000562052
0.000825828
0.00104848
-0.00014998
-0.000110677
-0.000103936
-9.83135e-05
-0.000109716
-8.47486e-05
-8.52672e-05
-5.68086e-05
-8.85882e-05
-6.4817e-05
-0.000182289
-0.000455184
-0.000865855
-0.00126902
-0.00140006
-0.00124833
-0.000936629
-0.000624421
-0.000382267
-0.000229306
0.000763945
0.00081282
0.000836202
0.000860983
0.000849191
0.000845506
0.000807873
0.000787393
0.000718337
0.000707412
0.00054686
0.000231538
-0.00017317
-0.000362274
-0.000309375
-7.78425e-05
0.000206574
0.00043328
0.000595466
0.000698952
1.33669e-07
1.74608e-06
-9.2359e-06
-1.0923e-05
-1.23679e-05
9.55871e-06
1.14005e-05
3.13204e-05
3.48535e-06
6.60373e-06
-0.000188887
-0.000597115
-0.00100248
-0.00108555
-0.000870556
-0.000579458
-0.00031469
-0.000150308
-5.41782e-05
-1.20423e-05
0.000441856
0.000466344
0.000477067
0.000487496
0.000474629
0.000466212
0.000435763
0.000413418
0.000360036
0.000342648
0.000161459
-0.000210299
-0.00046262
-0.000448426
-0.000215714
9.76661e-06
0.00019458
0.000300004
0.000370835
0.000412469
4.42234e-05
4.2139e-05
3.32194e-05
3.50473e-05
3.42906e-05
4.93444e-05
4.96979e-05
6.59991e-05
4.88313e-05
7.34349e-05
-0.000104149
-0.000534906
-0.000716841
-0.000634288
-0.000390537
-0.000205266
-6.71547e-05
-4.12596e-06
3.2805e-05
4.34358e-05
0.000251153
0.000262869
0.000266649
0.00026977
0.000258587
0.000249814
0.000226211
0.000208604
0.000173202
0.000192146
5.5095e-05
-0.000227702
-0.000332309
-0.00022616
-4.54141e-05
6.89613e-05
0.000154711
0.000191187
0.00022138
0.000237308
5.51979e-05
5.51322e-05
5.062e-05
5.40509e-05
5.28536e-05
6.41154e-05
6.3751e-05
8.73028e-05
8.39236e-05
0.000190259
7.55194e-05
-0.000272221
-0.000356294
-0.000290604
-0.000144999
-6.32347e-05
4.76891e-06
2.88261e-05
4.8815e-05
5.33911e-05
0.000145636
0.000150795
0.000150981
0.000151266
0.00014148
0.000133687
0.000114529
0.000102357
8.17004e-05
0.000139043
9.80962e-05
-5.16164e-05
-0.000108749
-5.34789e-05
3.36686e-05
7.06411e-05
0.000108274
0.000118083
0.00013304
0.000138831
5.29534e-05
5.46535e-05
5.31617e-05
5.67057e-05
5.54951e-05
6.4474e-05
6.47628e-05
9.32907e-05
0.000105256
0.000280143
0.000267018
-5.06652e-05
-0.000137034
-0.000139589
-7.50675e-05
-3.47217e-05
1.12277e-05
2.69814e-05
4.41389e-05
4.9021e-05
8.91067e-05
9.13005e-05
9.00825e-05
8.92909e-05
8.09441e-05
7.40634e-05
5.76892e-05
4.70659e-05
2.89974e-05
8.60666e-05
0.000195894
3.70424e-05
-1.9428e-05
-1.94209e-05
2.15274e-05
3.49206e-05
6.34432e-05
7.02405e-05
8.1971e-05
8.50314e-05
4.63806e-05
4.85703e-05
4.84666e-05
5.12965e-05
5.019e-05
5.61788e-05
5.59768e-05
7.23496e-05
6.8492e-05
0.000106982
6.64682e-05
-3.07809e-05
-4.01431e-05
-5.48724e-05
-2.09038e-05
-1.19167e-05
1.47723e-05
2.35114e-05
3.72755e-05
4.18318e-05
5.95378e-05
6.02814e-05
5.8776e-05
5.768e-05
5.09542e-05
4.50795e-05
3.22802e-05
2.1864e-05
9.76951e-06
9.08899e-06
4.07743e-05
9.82645e-06
1.88886e-05
1.6542e-05
3.6362e-05
3.51535e-05
4.91057e-05
4.92203e-05
5.62314e-05
5.71402e-05
3.95836e-05
4.14042e-05
4.16875e-05
4.35361e-05
4.24324e-05
4.58648e-05
4.58121e-05
5.38718e-05
5.14626e-05
5.81508e-05
3.35672e-05
-1.54763e-05
-1.68332e-05
-3.05303e-05
-8.36779e-06
-4.56058e-06
1.45871e-05
2.06542e-05
3.16199e-05
3.53731e-05
4.37941e-05
4.38916e-05
4.25986e-05
4.15041e-05
3.6359e-05
3.16317e-05
2.21393e-05
1.32256e-05
4.42048e-06
-2.44011e-06
1.15532e-05
6.41423e-06
2.27442e-05
2.05318e-05
3.41667e-05
3.02764e-05
3.88993e-05
3.74265e-05
4.21013e-05
4.21949e-05
3.41189e-05
3.5219e-05
3.5472e-05
3.64228e-05
3.51128e-05
3.67173e-05
3.64932e-05
3.97659e-05
3.90708e-05
3.78435e-05
2.53894e-05
-5.23383e-06
-6.21123e-06
-1.71497e-05
-1.94649e-06
4.3386e-07
1.47146e-05
1.92799e-05
2.78179e-05
3.05357e-05
3.50614e-05
3.48368e-05
3.39434e-05
3.2965e-05
2.91533e-05
2.5598e-05
1.88295e-05
1.17223e-05
5.84208e-06
-9.17699e-07
6.8059e-06
6.97477e-06
2.18201e-05
1.97534e-05
2.98159e-05
2.60907e-05
3.20247e-05
3.05774e-05
3.39873e-05
3.38429e-05
3.02532e-05
3.05442e-05
3.07458e-05
3.09598e-05
2.94875e-05
2.98314e-05
2.91981e-05
2.96636e-05
3.00571e-05
2.61765e-05
2.10637e-05
7.85005e-07
1.06785e-06
-6.94621e-06
3.90126e-06
5.44823e-06
1.5846e-05
1.92353e-05
2.56022e-05
2.73426e-05
3.01469e-05
2.95181e-05
2.90773e-05
2.8154e-05
2.52084e-05
2.26123e-05
1.84058e-05
1.24984e-05
9.30982e-06
3.23352e-06
8.50089e-06
8.23154e-06
2.00072e-05
1.76098e-05
2.55614e-05
2.28943e-05
2.72445e-05
2.64436e-05
2.91217e-05
2.88097e-05
2.77332e-05
2.7205e-05
2.7519e-05
2.72569e-05
2.55546e-05
2.52103e-05
2.42458e-05
2.28773e-05
2.39363e-05
1.92587e-05
1.8222e-05
4.72327e-06
6.75207e-06
9.88828e-07
9.01487e-06
1.00755e-05
1.72693e-05
1.98422e-05
2.44582e-05
2.52708e-05
2.72905e-05
2.61694e-05
2.61926e-05
2.51843e-05
2.28042e-05
2.12047e-05
1.83578e-05
1.35189e-05
1.28515e-05
6.62502e-06
1.15802e-05
9.01688e-06
1.84054e-05
1.58798e-05
2.20726e-05
2.06797e-05
2.39759e-05
2.398e-05
2.60751e-05
2.5619e-05
2.59859e-05
2.49965e-05
2.55814e-05
2.47114e-05
2.31231e-05
2.24061e-05
2.15314e-05
1.86808e-05
2.02992e-05
1.52304e-05
1.69624e-05
7.57554e-06
1.11364e-05
6.40875e-06
1.29324e-05
1.36529e-05
1.85864e-05
2.06945e-05
2.37123e-05
2.40449e-05
2.56846e-05
2.36314e-05
2.44613e-05
2.33669e-05
2.10899e-05
2.01356e-05
1.83245e-05
1.39512e-05
1.51967e-05
8.86361e-06
1.39793e-05
9.66608e-06
1.75648e-05
1.46403e-05
1.9906e-05
1.95007e-05
2.15953e-05
2.26064e-05
2.42767e-05
2.34717e-05
2.53563e-05
2.33718e-05
2.45182e-05
2.30604e-05
2.12417e-05
2.12584e-05
1.98682e-05
1.62315e-05
1.9249e-05
1.27243e-05
1.72012e-05
8.92764e-06
1.42933e-05
1.01877e-05
1.53462e-05
1.6481e-05
1.93812e-05
2.15406e-05
2.32058e-05
2.28768e-05
2.43525e-05
2.18365e-05
2.35256e-05
2.18105e-05
1.99117e-05
1.95132e-05
1.8401e-05
1.3382e-05
1.67225e-05
9.64479e-06
1.57954e-05
9.84217e-06
1.75822e-05
1.35186e-05
1.85177e-05
1.87827e-05
2.01218e-05
2.20007e-05
2.27495e-05
2.20922e-05
2.52455e-05
2.14799e-05
2.40903e-05
2.2489e-05
1.97615e-05
2.03839e-05
1.91914e-05
1.46757e-05
1.91726e-05
1.13479e-05
1.79589e-05
9.72164e-06
1.6563e-05
1.21722e-05
1.71572e-05
1.85354e-05
1.91115e-05
2.23184e-05
2.33072e-05
2.18287e-05
2.38638e-05
1.99615e-05
2.29887e-05
2.07934e-05
1.83051e-05
1.95055e-05
1.81946e-05
1.23465e-05
1.8212e-05
8.83815e-06
1.75622e-05
8.977e-06
1.77303e-05
1.26205e-05
1.73305e-05
1.87797e-05
1.86717e-05
2.17804e-05
2.16479e-05
2.03567e-05
2.50875e-05
2.02216e-05
2.41763e-05
2.15139e-05
1.85509e-05
2.04117e-05
1.88142e-05
1.29418e-05
1.98368e-05
9.99987e-06
1.92112e-05
9.61829e-06
1.8548e-05
1.27527e-05
1.78818e-05
1.97558e-05
1.89112e-05
2.31175e-05
2.27028e-05
2.08903e-05
2.40702e-05
1.72665e-05
2.29556e-05
2.03815e-05
1.56967e-05
1.99657e-05
1.7925e-05
1.03427e-05
1.93951e-05
7.09832e-06
1.89715e-05
7.42085e-06
1.82877e-05
1.11234e-05
1.61218e-05
1.9384e-05
1.64085e-05
2.18536e-05
2.10092e-05
1.78045e-05
2.51525e-05
1.83452e-05
2.46808e-05
2.07501e-05
1.68882e-05
2.1092e-05
1.83922e-05
1.06949e-05
2.13674e-05
7.71537e-06
2.10962e-05
8.04788e-06
2.02278e-05
1.19519e-05
1.79754e-05
2.06219e-05
1.77093e-05
2.4006e-05
2.19801e-05
1.9476e-05
2.41558e-05
1.40259e-05
2.37931e-05
1.92357e-05
1.23527e-05
2.11386e-05
1.74367e-05
6.62575e-06
2.11065e-05
3.59203e-06
2.08144e-05
4.23953e-06
1.9291e-05
8.31596e-06
1.46162e-05
1.96847e-05
1.35652e-05
2.25455e-05
1.9487e-05
1.47189e-05
2.58198e-05
1.54946e-05
2.56571e-05
1.97795e-05
1.36872e-05
2.23954e-05
1.76891e-05
7.65617e-06
2.29509e-05
4.57603e-06
2.28184e-05
5.33126e-06
2.14776e-05
9.46265e-06
1.73866e-05
2.16343e-05
1.5222e-05
2.49629e-05
2.081e-05
1.66256e-05
2.50887e-05
7.58396e-06
2.63957e-05
1.8253e-05
5.38934e-06
2.43556e-05
1.68443e-05
-1.2508e-06
2.46729e-05
-3.72814e-06
2.43274e-05
-2.66722e-06
2.17181e-05
1.89373e-06
1.20251e-05
2.10873e-05
7.47012e-06
2.46144e-05
1.78266e-05
8.76193e-06
2.62145e-05
1.03373e-05
2.75045e-05
1.76158e-05
8.1987e-06
2.50088e-05
1.59315e-05
1.69288e-06
2.51557e-05
-1.26826e-06
2.48622e-05
-2.00545e-07
2.26538e-05
4.18446e-06
1.5515e-05
2.18274e-05
1.01627e-05
2.62346e-05
1.79917e-05
1.17819e-05
2.82836e-05
-6.76548e-06
3.4072e-05
1.44174e-05
-1.19749e-05
3.40245e-05
1.3832e-05
-1.99354e-05
3.23827e-05
-2.06808e-05
3.13129e-05
-1.8972e-05
2.70511e-05
-1.40787e-05
6.78576e-06
2.4575e-05
-6.67038e-06
3.08998e-05
1.29154e-05
-5.60692e-06
-0.0109859
-0.0105934
-0.0102877
-0.0100763
-0.00995991
-0.00994754
-0.0100686
-0.0103034
-0.0106463
-0.011073
-0.0115611
-0.0120596
-0.0125054
-0.0128203
-0.0129537
-0.0129161
-0.0127154
-0.0123674
-0.0119221
-0.0114425
0.00232639
0.0022805
0.00214941
0.00198801
0.00183401
0.00174417
0.00167513
0.00159
0.00146791
0.00131358
0.00111156
0.00088851
0.000699465
0.000605201
0.000667435
0.000935698
0.00131235
0.00170487
0.00203617
0.00225056
-0.00233623
-0.00210085
-0.00191541
-0.00177973
-0.00173038
-0.00178639
-0.00191408
-0.00206397
-0.00228199
-0.00253811
-0.00286956
-0.0032206
-0.00352328
-0.00369302
-0.00372955
-0.00365441
-0.00346604
-0.00318798
-0.0028863
-0.00259697
0.00291009
0.00297348
0.00299771
0.00301515
0.0030201
0.00302002
0.00295337
0.00287525
0.00270863
0.00251575
0.00218796
0.00181896
0.00151246
0.00138204
0.00150957
0.00176915
0.00210764
0.00241304
0.00264743
0.0028104
-0.000458546
-0.000310848
-0.00023794
-0.000190965
-0.000228473
-0.000244243
-0.000305608
-0.000352504
-0.000507972
-0.000704182
-0.00112487
-0.00163075
-0.00205867
-0.00228688
-0.00231025
-0.00212772
-0.00177032
-0.00136234
-0.000981274
-0.000674073
0.00202418
0.00212581
0.00217641
0.00222217
0.00221845
0.00220833
0.00212547
0.0020539
0.00185834
0.00163425
0.00112036
0.000583456
0.000208147
0.00014819
0.000363673
0.000721667
0.0010999
0.00142747
0.00169125
0.00188936
6.06125e-05
0.000104635
0.000108751
0.000112955
9.05994e-05
0.000112611
8.22463e-05
7.49977e-05
-7.18724e-05
-0.000282432
-0.000890936
-0.00153937
-0.00194192
-0.00199586
-0.00169874
-0.00124493
-0.000786644
-0.000429699
-0.000177253
-2.09768e-05
0.00125578
0.00132593
0.00135866
0.00139267
0.00136816
0.00135427
0.00127723
0.00121127
0.0010231
0.000771273
0.000115614
-0.000489441
-0.000756433
-0.000571732
-0.000172622
0.000240231
0.000601525
0.000855596
0.00104147
0.00116875
0.000173726
0.000183563
0.000171137
0.000172245
0.000164754
0.000189025
0.000169143
0.000164346
4.10767e-05
-0.000181162
-0.000863639
-0.0015037
-0.00171836
-0.00145587
-0.000968524
-0.000552286
-0.000224448
-3.10876e-05
9.06916e-05
0.000150559
0.000743345
0.000783504
0.000799805
0.000815375
0.000792578
0.000777294
0.00071739
0.000662292
0.000518075
0.000290263
-0.000337077
-0.000846945
-0.000856019
-0.000556743
-0.000132801
0.000166528
0.000398509
0.000530406
0.000630845
0.000695408
0.000178988
0.000182757
0.000172505
0.000178216
0.000172851
0.00019117
0.000176524
0.000180511
9.86975e-05
-4.70295e-05
-0.000623353
-0.00115669
-0.00109741
-0.000794444
-0.00040739
-0.00017189
6.50728e-06
8.88457e-05
0.000147324
0.000170218
0.000436458
0.000457414
0.000463451
0.000469599
0.00045045
0.000437442
0.000393568
0.000357532
0.000265816
0.000139314
-0.000326217
-0.000619767
-0.000506622
-0.000239556
3.33118e-05
0.000170622
0.000283821
0.000332765
0.000382624
0.000411375
0.000155839
0.000160479
0.000155563
0.000162887
0.000158178
0.000173632
0.000164392
0.000190809
0.000156123
0.00018088
-0.000199705
-0.000575181
-0.000489077
-0.000327951
-0.000117485
-2.51325e-05
6.68545e-05
9.94714e-05
0.000135236
0.000147599
0.000262224
0.000272874
0.000273714
0.000276071
0.000259837
0.000249728
0.000216705
0.000198004
0.000150885
0.000142286
-8.04674e-05
-0.000198025
-0.00012551
-1.03113e-05
0.000111793
0.000143377
0.000195132
0.000207793
0.000235714
0.000248305
0.000127505
0.000133281
0.000132127
0.000139182
0.000135286
0.000148771
0.00014438
0.000185333
0.000191652
0.000365559
0.000228874
-0.000146373
-0.000154558
-0.000139833
-4.8264e-05
-1.04052e-05
5.46857e-05
7.59068e-05
0.000106737
0.00011767
0.000166144
0.000171859
0.000170686
0.000171382
0.000157741
0.000149339
0.000122313
0.000109786
7.80536e-05
0.000145072
0.000251633
8.32006e-06
-2.2959e-05
-1.50944e-05
5.42369e-05
6.77434e-05
0.000114949
0.000125795
0.000149121
0.000156829
0.000102655
0.000108147
0.000108628
0.000114253
0.000110946
0.000120328
0.000116532
0.000141305
0.000130449
0.000185712
0.000108641
-6.10615e-05
-5.501e-05
-7.63006e-05
-1.48533e-05
-4.37391e-06
4.27319e-05
5.72979e-05
8.34013e-05
9.28936e-05
0.000114294
0.000117268
0.000115604
0.000115539
0.000104546
9.73505e-05
7.62618e-05
6.32471e-05
4.14016e-05
4.32925e-05
7.52967e-05
4.56887e-06
2.90927e-05
2.15107e-05
6.15567e-05
5.81975e-05
8.67082e-05
8.85986e-05
0.00010438
0.000108074
8.37934e-05
8.79521e-05
8.87455e-05
9.25665e-05
8.95564e-05
9.50889e-05
9.2261e-05
0.000104259
9.67761e-05
0.000106184
6.34063e-05
-2.57695e-05
-1.74724e-05
-4.1366e-05
2.88302e-07
3.5377e-06
3.81763e-05
4.77744e-05
6.82575e-05
7.5405e-05
8.58817e-05
8.72955e-05
8.58244e-05
8.53812e-05
7.68787e-05
7.09839e-05
5.52767e-05
4.32298e-05
2.73629e-05
1.71048e-05
3.10734e-05
8.91098e-06
3.95603e-05
3.09331e-05
5.91591e-05
5.14764e-05
7.03233e-05
6.8914e-05
7.98847e-05
8.1467e-05
7.06194e-05
7.31064e-05
7.37236e-05
7.58963e-05
7.28155e-05
7.55238e-05
7.30699e-05
7.75009e-05
7.37361e-05
7.00429e-05
4.88325e-05
-5.59491e-06
4.99722e-07
-1.95314e-05
9.78337e-06
1.08934e-05
3.66702e-05
4.33083e-05
5.89526e-05
6.37721e-05
6.98071e-05
7.01814e-05
6.92103e-05
6.85629e-05
6.21223e-05
5.76295e-05
4.63655e-05
3.61383e-05
2.57589e-05
1.41781e-05
2.27197e-05
1.40088e-05
4.07056e-05
3.28618e-05
5.37844e-05
4.64106e-05
5.97356e-05
5.7854e-05
6.58625e-05
6.64235e-05
6.19937e-05
6.27729e-05
6.32947e-05
6.40903e-05
6.09323e-05
6.17097e-05
5.92138e-05
5.91772e-05
5.81656e-05
5.01574e-05
4.1801e-05
6.17969e-06
1.24192e-05
-2.85998e-06
1.84749e-05
1.86718e-05
3.74367e-05
4.21043e-05
5.36456e-05
5.64972e-05
6.06673e-05
5.99162e-05
5.96125e-05
5.86983e-05
5.3583e-05
5.03051e-05
4.3114e-05
3.41096e-05
2.87452e-05
1.76143e-05
2.47552e-05
1.81909e-05
3.95102e-05
3.20079e-05
4.83978e-05
4.28923e-05
5.26303e-05
5.15283e-05
5.75919e-05
5.74161e-05
5.66494e-05
5.57361e-05
5.65196e-05
5.63187e-05
5.29294e-05
5.27066e-05
5.01679e-05
4.7183e-05
4.8246e-05
3.88354e-05
3.79221e-05
1.3775e-05
2.15596e-05
1.00085e-05
2.60557e-05
2.59927e-05
3.90342e-05
4.25668e-05
5.0838e-05
5.19635e-05
5.53996e-05
5.34042e-05
5.39191e-05
5.25338e-05
4.82615e-05
4.63691e-05
4.14293e-05
3.35281e-05
3.28048e-05
2.11315e-05
2.93018e-05
2.07483e-05
3.82456e-05
3.11401e-05
4.40341e-05
4.07883e-05
4.79316e-05
4.80695e-05
5.25542e-05
5.17978e-05
5.32407e-05
5.10917e-05
5.25307e-05
5.11308e-05
4.79218e-05
4.72898e-05
4.5154e-05
3.97401e-05
4.27091e-05
3.2351e-05
3.67208e-05
1.9031e-05
2.86277e-05
1.88228e-05
3.188e-05
3.18161e-05
4.06538e-05
4.37846e-05
4.91364e-05
4.92564e-05
5.25215e-05
4.8583e-05
5.05985e-05
4.86886e-05
4.45285e-05
4.37262e-05
4.04065e-05
3.27215e-05
3.58184e-05
2.34287e-05
3.31915e-05
2.24621e-05
3.79307e-05
3.04847e-05
4.14506e-05
4.00874e-05
4.45517e-05
4.64244e-05
4.96157e-05
4.80514e-05
5.19162e-05
4.7665e-05
5.04092e-05
4.77711e-05
4.41616e-05
4.4861e-05
4.21365e-05
3.51551e-05
4.13197e-05
2.82038e-05
3.78205e-05
2.15426e-05
3.38683e-05
2.48304e-05
3.55059e-05
3.65173e-05
4.15432e-05
4.52262e-05
4.80357e-05
4.69353e-05
5.04431e-05
4.50119e-05
4.89027e-05
4.56716e-05
4.18371e-05
4.22646e-05
3.99243e-05
3.07592e-05
3.8127e-05
2.37105e-05
3.64503e-05
2.29515e-05
3.87648e-05
2.95097e-05
3.98429e-05
3.99336e-05
4.23115e-05
4.59944e-05
4.72251e-05
4.55057e-05
5.16543e-05
4.3968e-05
4.96193e-05
4.62604e-05
4.10988e-05
4.33089e-05
4.07718e-05
3.18811e-05
4.16509e-05
2.54758e-05
3.97859e-05
2.26543e-05
3.78045e-05
2.78215e-05
3.81505e-05
4.00529e-05
4.07911e-05
4.67108e-05
4.78764e-05
4.48033e-05
4.9805e-05
4.13093e-05
4.81433e-05
4.36395e-05
3.85568e-05
4.21169e-05
3.92376e-05
2.8094e-05
4.07095e-05
2.15394e-05
3.98028e-05
2.14085e-05
3.97712e-05
2.82904e-05
3.83172e-05
4.06578e-05
3.98436e-05
4.61819e-05
4.54152e-05
4.23636e-05
5.15858e-05
4.10039e-05
4.98912e-05
4.43416e-05
3.82407e-05
4.34693e-05
3.98914e-05
2.8127e-05
4.33036e-05
2.23726e-05
4.25767e-05
2.18401e-05
4.13465e-05
2.82658e-05
3.9065e-05
4.23801e-05
3.98035e-05
4.83193e-05
4.66801e-05
4.25955e-05
5.03241e-05
3.62016e-05
4.84426e-05
4.24896e-05
3.3595e-05
4.31082e-05
3.84711e-05
2.37112e-05
4.32046e-05
1.75591e-05
4.28649e-05
1.8186e-05
4.13933e-05
2.55367e-05
3.64902e-05
4.21215e-05
3.58016e-05
4.68756e-05
4.40728e-05
3.77594e-05
5.20005e-05
3.67559e-05
5.1141e-05
4.26658e-05
3.42832e-05
4.50333e-05
3.88721e-05
2.3085e-05
4.64915e-05
1.72731e-05
4.64525e-05
1.81386e-05
4.45535e-05
2.59863e-05
3.88422e-05
4.41564e-05
3.68706e-05
5.02156e-05
4.50782e-05
3.92758e-05
5.08554e-05
2.97483e-05
5.03977e-05
4.01939e-05
2.69536e-05
4.56665e-05
3.72693e-05
1.62199e-05
4.68446e-05
1.03027e-05
4.68136e-05
1.17526e-05
4.37486e-05
1.99919e-05
3.39296e-05
4.31209e-05
3.02323e-05
4.8622e-05
4.11744e-05
3.1812e-05
5.34634e-05
3.03202e-05
5.36173e-05
4.0473e-05
2.72387e-05
4.81949e-05
3.72444e-05
1.58837e-05
5.02544e-05
9.89242e-06
5.04665e-05
1.1664e-05
4.73846e-05
2.01688e-05
3.73157e-05
4.61811e-05
3.12103e-05
5.25307e-05
4.24397e-05
3.31456e-05
5.28013e-05
1.78483e-05
5.55106e-05
3.77854e-05
1.41219e-05
5.20003e-05
3.56026e-05
1.70974e-06
5.36703e-05
-3.47069e-06
5.35326e-05
-1.1486e-06
4.83584e-05
8.06614e-06
2.94464e-05
4.57278e-05
1.90382e-05
5.27083e-05
3.75477e-05
2.09053e-05
5.486e-05
1.95005e-05
5.81953e-05
3.622e-05
1.55903e-05
5.43557e-05
3.37674e-05
3.09892e-06
5.56355e-05
-2.68332e-06
5.55051e-05
-2.00321e-07
5.05499e-05
8.9331e-06
3.35701e-05
4.72911e-05
2.07067e-05
5.58981e-05
3.69257e-05
2.30794e-05
5.81348e-05
-5.05777e-06
6.85114e-05
3.11222e-05
-1.32671e-05
6.84287e-05
3.03272e-05
-2.79133e-05
6.695e-05
-3.07345e-05
6.56357e-05
-2.7275e-05
5.74344e-05
-1.74181e-05
2.13838e-05
5.15624e-05
-3.39302e-06
6.32265e-05
2.89519e-05
-1.6419e-06
-0.0135284
-0.0129795
-0.0125302
-0.0122026
-0.0120107
-0.0119843
-0.0121396
-0.012455
-0.0129197
-0.0134977
-0.0141529
-0.0148168
-0.015408
-0.0158322
-0.0160257
-0.015996
-0.015755
-0.015324
-0.0147614
-0.0141402
0.0019347
0.0019916
0.00192539
0.001791
0.00163373
0.00151862
0.00138247
0.00120765
0.000972904
0.000688003
0.000341891
-2.50619e-05
-0.000336841
-0.000510356
-0.000465263
-0.000152095
0.000326053
0.000860052
0.00135127
0.00172285
-0.0027461
-0.00243829
-0.00222196
-0.00208693
-0.00207288
-0.00218036
-0.0023772
-0.00261707
-0.00295169
-0.00334915
-0.00384884
-0.00437101
-0.00481305
-0.00505133
-0.00507917
-0.00489718
-0.00453515
-0.00405814
-0.00356771
-0.00312171
0.00338163
0.00345911
0.00347769
0.00348044
0.00345784
0.00341378
0.00328812
0.00313267
0.00285439
0.00251821
0.00200357
0.0014506
0.00102354
0.000887494
0.00113711
0.00158315
0.00213101
0.0026206
0.0029913
0.00323962
-0.000285157
-0.00012612
-5.50426e-05
-1.87374e-05
-7.95831e-05
-0.000120703
-0.000230496
-0.000344038
-0.000610953
-0.000961687
-0.00160193
-0.00231534
-0.00284462
-0.0030478
-0.00291552
-0.00251685
-0.00195109
-0.00138193
-0.000895935
-0.000529295
0.00247764
0.00259687
0.00265294
0.0026996
0.00267671
0.00264328
0.00251186
0.00237488
0.00206398
0.00167602
0.000918402
0.000183462
-0.000249238
-0.000194163
0.000213358
0.000770819
0.00130796
0.0017432
0.00207543
0.00231646
0.000290799
0.000348593
0.000355612
0.000357929
0.000326083
0.000334294
0.000266332
0.000205494
-5.07395e-05
-0.000428853
-0.00130548
-0.00214864
-0.00257516
-0.00248147
-0.00197873
-0.0013431
-0.000752312
-0.000311063
-3.90144e-06
0.00018771
0.00158463
0.00167325
0.00171311
0.00174966
0.00171266
0.00168273
0.00156668
0.00144659
0.00115059
0.000728773
-0.000200148
-0.000970774
-0.00120023
-0.000857598
-0.00026638
0.00028863
0.000752237
0.00107342
0.00130896
0.00147228
0.000370613
0.000392042
0.000381816
0.000385306
0.000369791
0.000385515
0.000336314
0.000289309
7.14197e-05
-0.000312695
-0.00126927
-0.00205828
-0.0021995
-0.00176781
-0.0011075
-0.000574941
-0.000163455
8.28845e-05
0.000244133
0.000330528
0.000967264
0.00102008
0.00104034
0.0010573
0.00102531
0.000999408
0.00091052
0.000815349
0.000585557
0.000209136
-0.00067454
-0.00129097
-0.00120068
-0.000747465
-0.000182966
0.000203739
0.000502516
0.00067725
0.000812784
0.000901933
0.000329447
0.00034128
0.00033222
0.00034036
0.000328722
0.000342019
0.000306553
0.000283467
0.000133256
-0.000135306
-0.000946218
-0.0015669
-0.00139569
-0.000962778
-0.00046116
-0.000160887
7.02249e-05
0.000183997
0.000269214
0.000309185
0.000586557
0.000615328
0.000623019
0.000630289
0.000604026
0.000584544
0.000520988
0.000460916
0.000313333
8.6958e-05
-0.000575996
-0.000910278
-0.00069478
-0.000325237
3.16557e-05
0.000211589
0.000364195
0.00043571
0.000507646
0.000550743
0.000266159
0.000276492
0.000272359
0.000281833
0.000272365
0.000285885
0.000263645
0.00027964
0.00020663
0.00017143
-0.00037396
-0.000792479
-0.00062149
-0.000393087
-0.00011942
5.34534e-07
0.000124047
0.000173121
0.000226843
0.000249865
0.000364277
0.0003799
0.000381325
0.000384725
0.000362942
0.000349273
0.000303409
0.0002742
0.000198502
0.000146841
-0.000189864
-0.000322373
-0.000185597
-2.69036e-05
0.000136432
0.000181856
0.000256504
0.000279865
0.000322327
0.000343341
0.000207982
0.000217977
0.000217438
0.000226362
0.000218839
0.000232276
0.000220303
0.000262033
0.000254056
0.00042364
0.000205036
-0.000227912
-0.000194057
-0.000162116
-3.66861e-05
1.11193e-05
9.83231e-05
0.000129263
0.000173742
0.000191975
0.000238164
0.000247258
0.000246253
0.000247846
0.000229744
0.00021926
0.000183093
0.000166681
0.000120653
0.000188032
0.000272714
-3.08713e-05
-4.1241e-05
-2.51505e-05
7.11233e-05
9.17377e-05
0.000157807
0.000175686
0.000210383
0.000223715
0.000162722
0.000171309
0.000172224
0.000179306
0.000173064
0.0001827
0.000173571
0.000199902
0.000179841
0.00023916
0.000132108
-8.80834e-05
-6.91154e-05
-9.18608e-05
-6.23793e-06
9.3314e-06
7.47133e-05
9.61898e-05
0.000133342
0.000148099
0.000167982
0.000173248
0.000171573
0.000172174
0.000157555
0.000148842
0.00012083
0.000104887
7.37174e-05
7.40954e-05
9.73919e-05
-5.64031e-06
3.07033e-05
2.03763e-05
7.8945e-05
7.74123e-05
0.000120062
0.000126035
0.000150498
0.000157917
0.000130628
0.00013689
0.000137914
0.000142714
0.000137212
0.000142744
0.000135884
0.000147999
0.000134455
0.000142448
8.5612e-05
-3.37924e-05
-1.73129e-05
-4.70649e-05
1.15499e-05
1.66422e-05
6.50066e-05
7.88945e-05
0.000107811
0.000118521
0.000128432
0.000131292
0.00012973
0.000129687
0.000118232
0.000111094
9.016e-05
7.52023e-05
5.28867e-05
3.8547e-05
4.83407e-05
9.57997e-06
5.01821e-05
3.66903e-05
7.82208e-05
6.99192e-05
9.90392e-05
9.97556e-05
0.000117184
0.000121122
0.000109131
0.000112853
0.000113549
0.000116247
0.000110959
0.000113382
0.00010775
0.000111154
0.000103504
9.60419e-05
6.81748e-05
-4.55353e-06
8.11623e-06
-1.77966e-05
2.39321e-05
2.53149e-05
6.12439e-05
7.04719e-05
9.23938e-05
9.94605e-05
0.000105589
0.00010669
0.000105637
0.000105119
9.62423e-05
9.07285e-05
7.55852e-05
6.2528e-05
4.80572e-05
3.17186e-05
3.88017e-05
2.03326e-05
5.54183e-05
4.28203e-05
7.36692e-05
6.49972e-05
8.58971e-05
8.51924e-05
9.80053e-05
9.99723e-05
9.54023e-05
9.66307e-05
9.72047e-05
9.81187e-05
9.29535e-05
9.32733e-05
8.82292e-05
8.64503e-05
8.32491e-05
7.08279e-05
6.00098e-05
1.25768e-05
2.46465e-05
4.37885e-06
3.50799e-05
3.49522e-05
6.11406e-05
6.74443e-05
8.35776e-05
8.7697e-05
9.24012e-05
9.16778e-05
9.14132e-05
9.03425e-05
8.31217e-05
7.90453e-05
6.90734e-05
5.72825e-05
4.98336e-05
3.39181e-05
4.14935e-05
2.79699e-05
5.63809e-05
4.46276e-05
6.87441e-05
6.20634e-05
7.73961e-05
7.71415e-05
8.6757e-05
8.7271e-05
8.70189e-05
8.57991e-05
8.67822e-05
8.63318e-05
8.1047e-05
8.03733e-05
7.57817e-05
7.05475e-05
7.08823e-05
5.68516e-05
5.61629e-05
2.36791e-05
3.70483e-05
2.13101e-05
4.46394e-05
4.41736e-05
6.25043e-05
6.7256e-05
7.88036e-05
8.04412e-05
8.47672e-05
8.20803e-05
8.29145e-05
8.10362e-05
7.48462e-05
7.24651e-05
6.54546e-05
5.47234e-05
5.36985e-05
3.70835e-05
4.73083e-05
3.27327e-05
5.65966e-05
4.56634e-05
6.4786e-05
6.08038e-05
7.19791e-05
7.30104e-05
8.00155e-05
7.93846e-05
8.18509e-05
7.86426e-05
8.06546e-05
7.85818e-05
7.35461e-05
7.26583e-05
6.88673e-05
6.07052e-05
6.4364e-05
4.90225e-05
5.57126e-05
3.12661e-05
4.65715e-05
3.29326e-05
5.19466e-05
5.16739e-05
6.41093e-05
6.84609e-05
7.59799e-05
7.60482e-05
8.05985e-05
7.50834e-05
7.7981e-05
7.51793e-05
6.90993e-05
6.82382e-05
6.32899e-05
5.24916e-05
5.69771e-05
3.91415e-05
5.25528e-05
3.58226e-05
5.7582e-05
4.63618e-05
6.2653e-05
6.10895e-05
6.81614e-05
7.1304e-05
7.61075e-05
7.4147e-05
7.96615e-05
7.33789e-05
7.73885e-05
7.35761e-05
6.80174e-05
6.90345e-05
6.47888e-05
5.44842e-05
6.30309e-05
4.39845e-05
5.79986e-05
3.50521e-05
5.37182e-05
4.07459e-05
5.65549e-05
5.78155e-05
6.49103e-05
7.02256e-05
7.41996e-05
7.25001e-05
7.78388e-05
6.97933e-05
7.54826e-05
7.0802e-05
6.48813e-05
6.59527e-05
6.21606e-05
4.91924e-05
5.98712e-05
3.88757e-05
5.71896e-05
3.69048e-05
5.96731e-05
4.6138e-05
6.14031e-05
6.18822e-05
6.55028e-05
7.11591e-05
7.30511e-05
7.0458e-05
7.90757e-05
6.79974e-05
7.61316e-05
7.10481e-05
6.34683e-05
6.69308e-05
6.28593e-05
4.97756e-05
6.39692e-05
4.0321e-05
6.13373e-05
3.6562e-05
5.91986e-05
4.45539e-05
5.98073e-05
6.25449e-05
6.37176e-05
7.221e-05
7.36162e-05
6.92553e-05
7.70003e-05
6.4398e-05
7.44744e-05
6.78124e-05
6.00567e-05
6.56157e-05
6.10207e-05
4.502e-05
6.33675e-05
3.55636e-05
6.20147e-05
3.50583e-05
6.18338e-05
4.49962e-05
5.99602e-05
6.35045e-05
6.23145e-05
7.18059e-05
7.06673e-05
6.60475e-05
7.89951e-05
6.33255e-05
7.64645e-05
6.82641e-05
5.90023e-05
6.71976e-05
6.15628e-05
4.42643e-05
6.66315e-05
3.57659e-05
6.56622e-05
3.51633e-05
6.41197e-05
4.48368e-05
6.08245e-05
6.58317e-05
6.19083e-05
7.44493e-05
7.18509e-05
6.57282e-05
7.76541e-05
5.72142e-05
7.50287e-05
6.58899e-05
5.30999e-05
6.70198e-05
5.98209e-05
3.85398e-05
6.70523e-05
2.96728e-05
6.66435e-05
3.05542e-05
6.46151e-05
4.13694e-05
5.78202e-05
6.58019e-05
5.69141e-05
7.31033e-05
6.86499e-05
5.97094e-05
7.96324e-05
5.68445e-05
7.82876e-05
6.57417e-05
5.28661e-05
6.95044e-05
6.00493e-05
3.67273e-05
7.12637e-05
2.82709e-05
7.1304e-05
2.96596e-05
6.86349e-05
4.12284e-05
6.02221e-05
6.84086e-05
5.73755e-05
7.71482e-05
6.94184e-05
6.05364e-05
7.8487e-05
4.80168e-05
7.7858e-05
6.26204e-05
4.3668e-05
7.07057e-05
5.80309e-05
2.78989e-05
7.23284e-05
1.93408e-05
7.24308e-05
2.15311e-05
6.8203e-05
3.36616e-05
5.44551e-05
6.74865e-05
4.91161e-05
7.57241e-05
6.46078e-05
5.13181e-05
8.15907e-05
4.72559e-05
8.19789e-05
6.24772e-05
4.24898e-05
7.42126e-05
5.76747e-05
2.58534e-05
7.68985e-05
1.7261e-05
7.73169e-05
1.99859e-05
7.28048e-05
3.25791e-05
5.77511e-05
7.12354e-05
4.89877e-05
8.05524e-05
6.54687e-05
5.15245e-05
8.10242e-05
3.20671e-05
8.47362e-05
5.9007e-05
2.65015e-05
7.92976e-05
5.55043e-05
8.52246e-06
8.15187e-05
8.50858e-07
8.15207e-05
4.30349e-06
7.43629e-05
1.77636e-05
4.84965e-05
7.09316e-05
3.42263e-05
8.12024e-05
5.93372e-05
3.67039e-05
8.36211e-05
3.21603e-05
8.85867e-05
5.67025e-05
2.61636e-05
8.30278e-05
5.30203e-05
7.88503e-06
8.47099e-05
-3.53049e-07
8.46921e-05
3.40755e-06
7.74731e-05
1.69019e-05
5.24248e-05
7.30992e-05
3.44412e-05
8.54476e-05
5.79335e-05
3.74657e-05
8.72217e-05
4.29584e-06
0.000100641
5.06109e-05
-6.50179e-06
9.95043e-05
4.89337e-05
-2.72346e-05
9.79327e-05
-3.21987e-05
9.6538e-05
-2.73098e-05
8.53705e-05
-1.3048e-05
3.84724e-05
7.79164e-05
7.14001e-06
9.38483e-05
4.8356e-05
9.55015e-06
-0.0149482
-0.0143231
-0.0138094
-0.0134341
-0.0132202
-0.0132042
-0.0133932
-0.0137655
-0.014307
-0.0149746
-0.015724
-0.0164758
-0.0171377
-0.017606
-0.0178125
-0.0177655
-0.0174801
-0.0169845
-0.016345
-0.0156416
0.00141608
0.00152494
0.00149571
0.00138234
0.00123525
0.00111174
0.000935392
0.000703227
0.000393118
2.10353e-05
-0.000418548
-0.000873372
-0.0012528
-0.00146149
-0.00140872
-0.00105269
-0.000506777
0.000109998
0.000686726
0.00113748
-0.00310426
-0.00274809
-0.00250855
-0.00237007
-0.00238042
-0.00252152
-0.00276615
-0.0030709