/*--------------------------------*- C++ -*----------------------------------*\
| =========                 |                                                 |
| \\      /  F ield         | OpenFOAM: The Open Source CFD Toolbox           |
|  \\    /   O peration     | Version:  2.4.0                                 |
|   \\  /    A nd           | Web:      www.OpenFOAM.org                      |
|    \\/     M anipulation  |                                                 |
\*---------------------------------------------------------------------------*/
FoamFile
{
    version     2.0;
    format      ascii;
    class       volScalarField;
    location    "670";
    object      p;
}
// * * * * * * * * * * * * * * * * * * * * * * * * * * * * * * * * * * * * * //

dimensions      [0 2 -2 0 0 0 0];

internalField   nonuniform List<scalar> 
283312
(
-0.00626977
-0.006328
-0.00656754
-0.00690842
-0.00726265
-0.00756106
-0.00779549
-0.00796041
-0.00808796
-0.00820141
-0.00832082
-0.00843269
-0.00850498
-0.00848196
-0.00833052
-0.0080578
-0.00767459
-0.00721792
-0.00676915
-0.00642666
0.00215305
0.00164905
0.00122071
0.000949315
0.000848023
0.000911857
0.00105347
0.00119347
0.00130362
0.00139133
0.00145892
0.00153808
0.00166687
0.00186792
0.0021545
0.00252559
0.00284278
0.00299605
0.00292137
0.00261717
-0.00230083
-0.00215175
-0.00193004
-0.00169108
-0.0014998
-0.00140381
-0.00138655
-0.00139422
-0.00144485
-0.00148829
-0.00152026
-0.00149985
-0.00142784
-0.00132603
-0.00127674
-0.00137921
-0.00161514
-0.0019058
-0.00216622
-0.00230979
0.00148386
0.0016553
0.00179834
0.00191274
0.00199556
0.00206396
0.0020705
0.00207639
0.00204249
0.00205233
0.0020687
0.00211616
0.00214704
0.00210894
0.0019865
0.00174993
0.00150254
0.00131966
0.00126416
0.00133653
-0.000744072
-0.000546439
-0.000430236
-0.000352509
-0.000349739
-0.000337611
-0.00034976
-0.000336806
-0.000367564
-0.000345707
-0.00035615
-0.000412029
-0.000585791
-0.00089593
-0.00131412
-0.00165025
-0.0017422
-0.00160444
-0.0013228
-0.00100902
0.00120489
0.00131407
0.00137169
0.00141709
0.00143069
0.00143788
0.00140325
0.00138991
0.00132512
0.00133392
0.00127648
0.00115178
0.000879301
0.000526131
0.000265076
0.00019464
0.000321342
0.000562119
0.000825888
0.00104856
-0.000150009
-0.0001107
-0.000103956
-9.83349e-05
-0.000109737
-8.47666e-05
-8.52813e-05
-5.68178e-05
-8.85972e-05
-6.48363e-05
-0.000182347
-0.000455259
-0.000865876
-0.00126904
-0.00140013
-0.00124846
-0.000936769
-0.000624535
-0.000382343
-0.000229352
0.00076404
0.00081292
0.000836305
0.000861087
0.000849294
0.000845612
0.000807979
0.000787502
0.000718442
0.000707502
0.000546889
0.000231521
-0.000173219
-0.000362321
-0.000309439
-7.78904e-05
0.000206564
0.000433313
0.000595531
0.000699037
1.35255e-07
1.74433e-06
-9.24023e-06
-1.09298e-05
-1.23733e-05
9.55737e-06
1.14039e-05
3.13304e-05
3.49542e-06
6.60268e-06
-0.00018895
-0.000597239
-0.00100267
-0.00108575
-0.000870725
-0.00057957
-0.000314747
-0.000150329
-5.41807e-05
-1.20394e-05
0.000441917
0.000466406
0.00047713
0.00048756
0.000474692
0.000466276
0.000435827
0.000413484
0.000360097
0.000342695
0.000161456
-0.000210367
-0.000462732
-0.000448535
-0.000215779
9.74908e-06
0.000194599
0.000300045
0.000370888
0.000412527
4.42293e-05
4.21415e-05
3.32195e-05
3.5046e-05
3.42906e-05
4.93474e-05
4.97046e-05
6.60103e-05
4.88427e-05
7.34373e-05
-0.000104188
-0.000535
-0.000716964
-0.000634393
-0.000390598
-0.00020529
-6.71559e-05
-4.11707e-06
3.28164e-05
4.34452e-05
0.000251187
0.000262904
0.000266685
0.000269806
0.000258623
0.000249851
0.000226247
0.000208641
0.000173235
0.000192173
5.50928e-05
-0.000227748
-0.000332362
-0.000226197
-4.54233e-05
6.89717e-05
0.000154734
0.000191215
0.000221412
0.000237341
5.52035e-05
5.51355e-05
5.06219e-05
5.40521e-05
5.28558e-05
6.41193e-05
6.37575e-05
8.73119e-05
8.3934e-05
0.000190268
7.55034e-05
-0.000272262
-0.000356338
-0.000290633
-0.000145007
-6.32316e-05
4.7783e-06
2.88369e-05
4.88251e-05
5.33989e-05
0.000145655
0.000150814
0.000151001
0.000151285
0.0001415
0.000133707
0.000114548
0.000102378
8.17181e-05
0.000139063
9.81015e-05
-5.16306e-05
-0.000108761
-5.34789e-05
3.36766e-05
7.06539e-05
0.00010829
0.0001181
0.000133057
0.000138848
5.2958e-05
5.46568e-05
5.31643e-05
5.6708e-05
5.5498e-05
6.44777e-05
6.47679e-05
9.32973e-05
0.000105263
0.000280155
0.000267024
-5.06565e-05
-0.000137032
-0.000139588
-7.50597e-05
-3.47131e-05
1.12369e-05
2.69898e-05
4.41464e-05
4.90269e-05
8.91165e-05
9.13104e-05
9.00929e-05
8.93015e-05
8.09545e-05
7.40741e-05
5.76988e-05
4.70765e-05
2.9005e-05
8.60752e-05
0.000195901
3.70544e-05
-1.94088e-05
-1.94041e-05
2.15378e-05
3.49308e-05
6.3453e-05
7.02499e-05
8.19805e-05
8.50409e-05
4.63844e-05
4.85733e-05
4.84693e-05
5.12989e-05
5.01927e-05
5.61818e-05
5.59806e-05
7.23539e-05
6.84963e-05
0.000106985
6.64688e-05
-3.07774e-05
-4.0142e-05
-5.48684e-05
-2.08969e-05
-1.19107e-05
1.47787e-05
2.35173e-05
3.72808e-05
4.18362e-05
5.95433e-05
6.02869e-05
5.87817e-05
5.76856e-05
5.09597e-05
4.50852e-05
3.2285e-05
2.18694e-05
9.77294e-06
9.09309e-06
4.0778e-05
9.83146e-06
1.88963e-05
1.65499e-05
3.63683e-05
3.51593e-05
4.91114e-05
4.92256e-05
5.62368e-05
5.71455e-05
3.95867e-05
4.14067e-05
4.16898e-05
4.35382e-05
4.24346e-05
4.58672e-05
4.58148e-05
5.38748e-05
5.14655e-05
5.81535e-05
3.35679e-05
-1.54748e-05
-1.68324e-05
-3.05277e-05
-8.36393e-06
-4.55644e-06
1.45915e-05
2.06583e-05
3.16238e-05
3.53765e-05
4.37974e-05
4.38947e-05
4.26019e-05
4.15072e-05
3.63621e-05
3.16347e-05
2.2142e-05
1.32283e-05
4.42222e-06
-2.43822e-06
1.15555e-05
6.41716e-06
2.27485e-05
2.05362e-05
3.41706e-05
3.028e-05
3.89028e-05
3.74299e-05
4.21048e-05
4.21982e-05
3.41213e-05
3.52209e-05
3.54739e-05
3.64245e-05
3.51145e-05
3.6719e-05
3.64951e-05
3.97679e-05
3.90727e-05
3.78457e-05
2.53902e-05
-5.23291e-06
-6.21037e-06
-1.71479e-05
-1.94385e-06
4.36774e-07
1.47178e-05
1.9283e-05
2.78208e-05
3.05383e-05
3.50636e-05
3.48388e-05
3.39455e-05
3.29668e-05
2.91551e-05
2.55997e-05
1.88311e-05
1.17237e-05
5.84314e-06
-9.16776e-07
6.80738e-06
6.97674e-06
2.18229e-05
1.97562e-05
2.98186e-05
2.60932e-05
3.20272e-05
3.05797e-05
3.39897e-05
3.38451e-05
3.02551e-05
3.05457e-05
3.07473e-05
3.0961e-05
2.94887e-05
2.98325e-05
2.91993e-05
2.96648e-05
3.00584e-05
2.6178e-05
2.10646e-05
7.85628e-07
1.06869e-06
-6.94485e-06
3.90324e-06
5.45036e-06
1.58485e-05
1.92375e-05
2.56044e-05
2.73445e-05
3.01485e-05
2.95195e-05
2.90787e-05
2.81552e-05
2.52095e-05
2.26133e-05
1.84068e-05
1.24991e-05
9.31052e-06
3.234e-06
8.50193e-06
8.23288e-06
2.00092e-05
1.76117e-05
2.55634e-05
2.2896e-05
2.72464e-05
2.64453e-05
2.91235e-05
2.88113e-05
2.77346e-05
2.72062e-05
2.75201e-05
2.72578e-05
2.55555e-05
2.52109e-05
2.42466e-05
2.2878e-05
2.39372e-05
1.92595e-05
1.82227e-05
4.72373e-06
6.75291e-06
9.89908e-07
9.01649e-06
1.00771e-05
1.72712e-05
1.9844e-05
2.446e-05
2.52723e-05
2.72918e-05
2.61705e-05
2.61936e-05
2.51851e-05
2.2805e-05
2.12053e-05
1.83584e-05
1.35192e-05
1.2852e-05
6.62526e-06
1.15809e-05
9.01774e-06
1.84068e-05
1.58812e-05
2.20742e-05
2.06811e-05
2.39775e-05
2.39814e-05
2.60766e-05
2.56203e-05
2.59871e-05
2.49975e-05
2.55823e-05
2.47121e-05
2.31237e-05
2.24064e-05
2.15319e-05
1.8681e-05
2.02998e-05
1.52308e-05
1.6963e-05
7.5759e-06
1.11372e-05
6.40965e-06
1.29338e-05
1.36543e-05
1.85881e-05
2.0696e-05
2.37138e-05
2.40462e-05
2.56856e-05
2.36322e-05
2.4462e-05
2.33674e-05
2.10905e-05
2.01359e-05
1.83249e-05
1.39513e-05
1.51971e-05
8.8637e-06
1.39799e-05
9.66662e-06
1.75659e-05
1.46413e-05
1.99073e-05
1.95019e-05
2.15967e-05
2.26076e-05
2.4278e-05
2.34729e-05
2.53573e-05
2.33726e-05
2.45188e-05
2.30609e-05
2.12421e-05
2.12585e-05
1.98685e-05
1.62315e-05
1.92494e-05
1.27243e-05
1.72017e-05
8.92789e-06
1.42941e-05
1.01885e-05
1.53474e-05
1.64821e-05
1.93826e-05
2.15418e-05
2.3207e-05
2.28779e-05
2.43533e-05
2.18372e-05
2.35262e-05
2.18109e-05
1.9912e-05
1.95134e-05
1.84014e-05
1.33819e-05
1.67229e-05
9.64474e-06
1.57959e-05
9.8425e-06
1.75831e-05
1.35193e-05
1.85188e-05
1.87836e-05
2.01231e-05
2.20017e-05
2.27506e-05
2.20932e-05
2.52463e-05
2.14807e-05
2.40908e-05
2.24893e-05
1.97618e-05
2.03839e-05
1.91916e-05
1.46755e-05
1.91729e-05
1.13477e-05
1.79594e-05
9.7218e-06
1.65637e-05
1.21728e-05
1.71584e-05
1.85363e-05
1.91128e-05
2.23194e-05
2.33083e-05
2.18297e-05
2.38645e-05
1.99622e-05
2.29891e-05
2.07937e-05
1.83053e-05
1.95055e-05
1.81949e-05
1.23462e-05
1.82124e-05
8.83797e-06
1.75627e-05
8.97719e-06
1.77311e-05
1.26211e-05
1.73315e-05
1.87805e-05
1.86729e-05
2.17812e-05
2.16488e-05
2.03576e-05
2.50882e-05
2.02223e-05
2.41767e-05
2.15142e-05
1.85511e-05
2.04117e-05
1.88143e-05
1.29414e-05
1.98371e-05
9.99956e-06
1.92116e-05
9.61837e-06
1.85487e-05
1.27532e-05
1.78828e-05
1.97566e-05
1.89124e-05
2.31183e-05
2.27038e-05
2.08913e-05
2.40707e-05
1.72672e-05
2.2956e-05
2.03818e-05
1.56968e-05
1.99658e-05
1.79253e-05
1.03423e-05
1.93955e-05
7.09801e-06
1.8972e-05
7.42094e-06
1.82884e-05
1.11239e-05
1.61228e-05
1.93846e-05
1.64096e-05
2.18543e-05
2.101e-05
1.78054e-05
2.5153e-05
1.83459e-05
2.46811e-05
2.07504e-05
1.68883e-05
2.10919e-05
1.83923e-05
1.06944e-05
2.13678e-05
7.71493e-06
2.10967e-05
8.04788e-06
2.02285e-05
1.19524e-05
1.79764e-05
2.06225e-05
1.77105e-05
2.40067e-05
2.19811e-05
1.9477e-05
2.41561e-05
1.40266e-05
2.37933e-05
1.9236e-05
1.23527e-05
2.11387e-05
1.74369e-05
6.62518e-06
2.11071e-05
3.59157e-06
2.0815e-05
4.23953e-06
1.92916e-05
8.31645e-06
1.46171e-05
1.96851e-05
1.35663e-05
2.2546e-05
1.94877e-05
1.47199e-05
2.58202e-05
1.54953e-05
2.56573e-05
1.97798e-05
1.36872e-05
2.23954e-05
1.76892e-05
7.6555e-06
2.29514e-05
4.57545e-06
2.2819e-05
5.33117e-06
2.14782e-05
9.46311e-06
1.73875e-05
2.16348e-05
1.52232e-05
2.49635e-05
2.08108e-05
1.66267e-05
2.50888e-05
7.58472e-06
2.63958e-05
1.82533e-05
5.38923e-06
2.43558e-05
1.68446e-05
-1.25168e-06
2.46737e-05
-3.72885e-06
2.43282e-05
-2.66735e-06
2.17188e-05
1.89421e-06
1.20259e-05
2.10874e-05
7.47139e-06
2.46145e-05
1.78271e-05
8.76307e-06
2.62146e-05
1.03381e-05
2.75046e-05
1.76162e-05
8.1986e-06
2.5009e-05
1.59317e-05
1.69199e-06
2.51564e-05
-1.26902e-06
2.48629e-05
-2.0072e-07
2.26544e-05
4.18492e-06
1.55158e-05
2.18277e-05
1.0164e-05
2.62349e-05
1.79924e-05
1.17831e-05
2.82832e-05
-6.76445e-06
3.40719e-05
1.44177e-05
-1.19753e-05
3.40251e-05
1.38325e-05
-1.9937e-05
3.23841e-05
-2.06821e-05
3.13142e-05
-1.89724e-05
2.70519e-05
-1.40782e-05
6.78639e-06
2.45747e-05
-6.66867e-06
3.08993e-05
1.29157e-05
-5.60517e-06
-0.0109869
-0.0105945
-0.0102888
-0.0100774
-0.00996107
-0.00994876
-0.0100698
-0.0103048
-0.0106477
-0.0110744
-0.0115626
-0.012061
-0.0125067
-0.0128216
-0.0129549
-0.0129172
-0.0127165
-0.0123684
-0.0119231
-0.0114435
0.0023262
0.00228029
0.00214921
0.00198781
0.00183382
0.00174399
0.00167496
0.00158983
0.00146775
0.00131343
0.00111142
0.000888388
0.000699379
0.000605154
0.000667445
0.000935759
0.00131238
0.00170486
0.00203609
0.00225041
-0.00233644
-0.00210111
-0.00191572
-0.00178007
-0.00173074
-0.00178677
-0.00191447
-0.00206438
-0.00228241
-0.00253854
-0.00286998
-0.00322099
-0.00352359
-0.00369324
-0.0037297
-0.00365453
-0.00346614
-0.00318809
-0.00288643
-0.00259714
0.0029103
0.00297367
0.00299788
0.00301531
0.00302027
0.00302019
0.00295354
0.00287542
0.00270879
0.00251591
0.00218814
0.00181917
0.00151274
0.00138239
0.00150996
0.00176957
0.00210803
0.00241338
0.00264773
0.00281065
-0.000458594
-0.000310909
-0.000238009
-0.000191044
-0.000228561
-0.000244338
-0.000305708
-0.000352613
-0.000508091
-0.000704308
-0.00112501
-0.00163086
-0.00205873
-0.00228685
-0.00231016
-0.0021276
-0.00177023
-0.0013623
-0.000981278
-0.000674105
0.00202443
0.00212605
0.00217664
0.0022224
0.00221867
0.00220854
0.00212569
0.00205412
0.00185855
0.00163445
0.00112053
0.000583583
0.000208283
0.000148383
0.000363938
0.000721972
0.00110021
0.00142776
0.00169153
0.00188962
6.065e-05
0.000104661
0.000108767
0.000112962
9.06022e-05
0.000112613
8.22498e-05
7.50034e-05
-7.18729e-05
-0.000282449
-0.000891033
-0.00153957
-0.00194216
-0.00199609
-0.00169889
-0.00124499
-0.000786642
-0.000429662
-0.000177204
-2.09306e-05
0.00125596
0.00132611
0.00135884
0.00139284
0.00136833
0.00135444
0.00127739
0.00121144
0.00102325
0.000771397
0.000115619
-0.000489581
-0.000756662
-0.000571893
-0.000172676
0.000240293
0.000601661
0.000855769
0.00104166
0.00116894
0.000173771
0.000183598
0.000171164
0.000172265
0.000164774
0.000189048
0.00016917
0.000164378
4.11015e-05
-0.000181162
-0.000863764
-0.00150396
-0.00171873
-0.00145619
-0.000968714
-0.000552351
-0.000224434
-3.10373e-05
9.07515e-05
0.000150614
0.00074346
0.000783617
0.000799918
0.000815485
0.000792686
0.000777401
0.000717495
0.000662396
0.000518166
0.000290326
-0.000337122
-0.000847121
-0.000856247
-0.000556922
-0.000132869
0.00016655
0.000398587
0.00053051
0.000630959
0.000695523
0.000179023
0.000182785
0.000172528
0.000178235
0.000172871
0.000191192
0.00017655
0.000180541
9.87221e-05
-4.70245e-05
-0.000623438
-0.00115688
-0.00109764
-0.000794613
-0.000407469
-0.000171901
6.535e-06
8.88888e-05
0.00014737
0.000170259
0.000436525
0.00045748
0.000463517
0.000469664
0.000450514
0.000437506
0.00039363
0.000357594
0.000265868
0.000139353
-0.000326247
-0.000619872
-0.000506733
-0.000239628
3.32969e-05
0.000170647
0.00028387
0.000332826
0.000382689
0.000411442
0.000155863
0.0001605
0.00015558
0.000162902
0.000158194
0.00017365
0.000164412
0.000190832
0.000156144
0.000180893
-0.000199745
-0.000575266
-0.000489162
-0.000328004
-0.000117499
-2.5121e-05
6.68806e-05
9.95025e-05
0.000135268
0.000147627
0.000262262
0.000272912
0.000273752
0.000276108
0.000259873
0.000249765
0.000216739
0.000198039
0.000150915
0.000142316
-8.04728e-05
-0.000198062
-0.000125541
-1.03204e-05
0.000111803
0.0001434
0.000195163
0.000207828
0.000235751
0.000248343
0.000127523
0.000133296
0.00013214
0.000139195
0.000135299
0.000148784
0.000144394
0.000185349
0.000191667
0.000365577
0.000228873
-0.000146373
-0.000154565
-0.000139836
-4.82531e-05
-1.03887e-05
5.47063e-05
7.59282e-05
0.000106759
0.000117689
0.000166166
0.000171881
0.000170708
0.000171403
0.000157761
0.000149359
0.000122332
0.000109805
7.80674e-05
0.000145086
0.000251639
8.32911e-06
-2.2941e-05
-1.50761e-05
5.42511e-05
6.77608e-05
0.000114969
0.000125816
0.000149143
0.000156851
0.000102668
0.000108158
0.000108638
0.000114262
0.000110956
0.000120338
0.000116542
0.000141315
0.000130458
0.000185718
0.000108641
-6.10597e-05
-5.50117e-05
-7.62969e-05
-1.48435e-05
-4.36281e-06
4.27454e-05
5.73119e-05
8.34155e-05
9.29067e-05
0.000114307
0.000117281
0.000115617
0.000115551
0.000104558
9.73624e-05
7.62722e-05
6.32575e-05
4.14085e-05
4.32994e-05
7.53014e-05
4.57435e-06
2.91013e-05
2.15206e-05
6.1566e-05
5.82076e-05
8.67195e-05
8.86105e-05
0.000104393
0.000108087
8.38023e-05
8.796e-05
8.87532e-05
9.25736e-05
8.95635e-05
9.50958e-05
9.22679e-05
0.000104266
9.67821e-05
0.000106189
6.34072e-05
-2.57683e-05
-1.74722e-05
-4.13627e-05
2.9419e-07
3.54515e-06
3.81853e-05
4.77838e-05
6.82673e-05
7.54142e-05
8.58901e-05
8.73035e-05
8.58326e-05
8.53889e-05
7.68862e-05
7.0991e-05
5.52829e-05
4.32356e-05
2.73668e-05
1.71081e-05
3.10766e-05
8.91453e-06
3.95655e-05
3.09388e-05
5.91651e-05
5.14827e-05
7.03305e-05
6.89215e-05
7.98929e-05
8.14751e-05
7.06259e-05
7.31122e-05
7.37294e-05
7.59015e-05
7.28207e-05
7.55286e-05
7.30747e-05
7.75056e-05
7.37402e-05
7.00467e-05
4.8834e-05
-5.59392e-06
5.00633e-07
-1.95289e-05
9.78755e-06
1.08985e-05
3.66765e-05
4.33149e-05
5.89595e-05
6.37787e-05
6.98129e-05
7.01867e-05
6.92157e-05
6.85679e-05
6.21272e-05
5.76339e-05
4.63696e-05
3.61417e-05
2.57615e-05
1.418e-05
2.2722e-05
1.40113e-05
4.07093e-05
3.28656e-05
5.37886e-05
4.64149e-05
5.97406e-05
5.78591e-05
6.58682e-05
6.64291e-05
6.19985e-05
6.27772e-05
6.32989e-05
6.40941e-05
6.09361e-05
6.1713e-05
5.92172e-05
5.91802e-05
5.81685e-05
5.016e-05
4.18026e-05
6.18052e-06
1.24204e-05
-2.85801e-06
1.84781e-05
1.86755e-05
3.74414e-05
4.2109e-05
5.36507e-05
5.65021e-05
6.06714e-05
5.992e-05
5.96164e-05
5.87017e-05
5.35863e-05
5.0308e-05
4.31168e-05
3.41117e-05
2.87472e-05
1.76155e-05
2.47571e-05
1.81928e-05
3.9513e-05
3.20106e-05
4.8401e-05
4.28954e-05
5.26341e-05
5.15321e-05
5.75961e-05
5.74202e-05
5.66531e-05
5.57394e-05
5.65228e-05
5.63214e-05
5.29322e-05
5.27088e-05
5.01704e-05
4.7185e-05
4.82482e-05
3.88371e-05
3.79236e-05
1.37758e-05
2.15611e-05
1.00101e-05
2.60584e-05
2.59955e-05
3.90378e-05
4.25704e-05
5.08419e-05
5.19672e-05
5.54027e-05
5.34071e-05
5.39219e-05
5.25362e-05
4.82639e-05
4.6371e-05
4.14313e-05
3.35294e-05
3.28064e-05
2.11324e-05
2.93035e-05
2.07496e-05
3.82478e-05
3.11421e-05
4.40368e-05
4.07907e-05
4.79347e-05
4.80724e-05
5.25575e-05
5.1801e-05
5.32435e-05
5.10943e-05
5.25331e-05
5.11329e-05
4.79239e-05
4.72913e-05
4.51558e-05
3.97412e-05
4.27107e-05
3.2352e-05
3.67222e-05
1.90317e-05
2.86293e-05
1.88243e-05
3.18824e-05
3.18184e-05
4.06569e-05
4.37874e-05
4.91395e-05
4.92593e-05
5.25239e-05
4.85853e-05
5.06006e-05
4.86904e-05
4.45303e-05
4.37275e-05
4.0408e-05
3.27223e-05
3.58199e-05
2.34293e-05
3.31929e-05
2.2463e-05
3.79326e-05
3.04863e-05
4.14529e-05
4.00894e-05
4.45544e-05
4.64268e-05
4.96184e-05
4.8054e-05
5.19183e-05
4.7667e-05
5.04111e-05
4.77726e-05
4.4163e-05
4.4862e-05
4.21379e-05
3.51556e-05
4.1321e-05
2.82043e-05
3.78219e-05
2.15432e-05
3.38698e-05
2.48317e-05
3.55081e-05
3.65192e-05
4.15459e-05
4.52285e-05
4.80383e-05
4.69377e-05
5.04449e-05
4.50137e-05
4.89043e-05
4.5673e-05
4.18384e-05
4.22655e-05
3.99256e-05
3.07595e-05
3.81283e-05
2.37107e-05
3.64517e-05
2.29522e-05
3.87665e-05
2.9511e-05
3.9845e-05
3.99352e-05
4.23139e-05
4.59964e-05
4.72273e-05
4.55079e-05
5.16561e-05
4.39698e-05
4.96207e-05
4.62616e-05
4.10998e-05
4.33095e-05
4.07728e-05
3.18812e-05
4.16521e-05
2.54759e-05
3.97871e-05
2.26547e-05
3.78061e-05
2.78227e-05
3.81525e-05
4.00546e-05
4.07935e-05
4.67127e-05
4.78786e-05
4.48054e-05
4.98064e-05
4.13109e-05
4.81446e-05
4.36406e-05
3.85578e-05
4.21175e-05
3.92386e-05
2.8094e-05
4.07108e-05
2.15395e-05
3.98042e-05
2.1409e-05
3.97728e-05
2.82916e-05
3.83192e-05
4.06592e-05
3.98458e-05
4.61835e-05
4.5417e-05
4.23655e-05
5.15872e-05
4.10055e-05
4.98923e-05
4.43426e-05
3.82415e-05
4.34698e-05
3.98923e-05
2.81268e-05
4.33048e-05
2.23724e-05
4.2578e-05
2.18405e-05
4.13481e-05
2.82669e-05
3.90669e-05
4.23815e-05
3.98058e-05
4.83209e-05
4.6682e-05
4.25974e-05
5.03251e-05
3.62031e-05
4.84435e-05
4.24906e-05
3.35957e-05
4.31087e-05
3.84721e-05
2.37109e-05
4.32059e-05
1.75588e-05
4.28663e-05
1.81864e-05
4.13949e-05
2.55378e-05
3.6492e-05
4.21226e-05
3.58037e-05
4.68768e-05
4.40744e-05
3.77612e-05
5.20016e-05
3.67574e-05
5.11418e-05
4.26667e-05
3.42838e-05
4.50337e-05
3.88728e-05
2.30845e-05
4.64927e-05
1.72726e-05
4.64538e-05
1.81388e-05
4.4555e-05
2.59873e-05
3.8844e-05
4.41575e-05
3.68728e-05
5.02169e-05
4.50799e-05
3.92777e-05
5.08561e-05
2.97498e-05
5.03984e-05
4.01948e-05
2.6954e-05
4.5667e-05
3.72703e-05
1.62193e-05
4.68462e-05
1.03022e-05
4.68152e-05
1.17528e-05
4.37502e-05
1.99929e-05
3.39314e-05
4.31217e-05
3.02346e-05
4.86228e-05
4.11756e-05
3.18138e-05
5.34641e-05
3.03217e-05
5.36179e-05
4.04739e-05
2.72391e-05
4.81953e-05
3.72451e-05
1.58829e-05
5.02559e-05
9.8917e-06
5.0468e-05
1.16641e-05
4.73861e-05
2.01698e-05
3.73175e-05
4.61819e-05
3.12126e-05
5.25316e-05
4.24411e-05
3.31476e-05
5.28015e-05
1.78499e-05
5.5511e-05
3.77862e-05
1.4122e-05
5.20011e-05
3.56037e-05
1.70854e-06
5.36723e-05
-3.47165e-06
5.35346e-05
-1.14857e-06
4.836e-05
8.06717e-06
2.9448e-05
4.57281e-05
1.90407e-05
5.27086e-05
3.75487e-05
2.09074e-05
5.48602e-05
1.95022e-05
5.81957e-05
3.62209e-05
1.55905e-05
5.43564e-05
3.37683e-05
3.09761e-06
5.56374e-05
-2.68442e-06
5.5507e-05
-2.00388e-07
5.05515e-05
8.93411e-06
3.35717e-05
4.72915e-05
2.07093e-05
5.58984e-05
3.69269e-05
2.30817e-05
5.81341e-05
-5.05579e-06
6.85114e-05
3.11231e-05
-1.32675e-05
6.843e-05
3.03284e-05
-2.79156e-05
6.69531e-05
-3.07363e-05
6.56385e-05
-2.72753e-05
5.74362e-05
-1.74169e-05
2.13851e-05
5.1562e-05
-3.38989e-06
6.32256e-05
2.89525e-05
-1.63884e-06
-0.0135298
-0.0129808
-0.0125316
-0.012204
-0.0120121
-0.0119859
-0.0121412
-0.0124566
-0.0129213
-0.0134994
-0.0141546
-0.0148184
-0.0154096
-0.0158338
-0.0160271
-0.0159974
-0.0157563
-0.0153253
-0.0147627
-0.0141415
0.00193437
0.00199126
0.00192506
0.00179068
0.00163343
0.00151834
0.0013822
0.00120738
0.000972638
0.000687744
0.000341646
-2.52841e-05
-0.000337026
-0.000510503
-0.000465361
-0.000152152
0.000325961
0.000859898
0.00135104
0.00172255
-0.00274641
-0.00243866
-0.00222238
-0.00208738
-0.00207334
-0.00218084
-0.0023777
-0.00261758
-0.00295222
-0.0033497
-0.00384937
-0.0043715
-0.00481347
-0.00505164
-0.00507942
-0.00489742
-0.00453536
-0.00405836
-0.00356795
-0.00312198
0.00338186
0.00345931
0.00347787
0.00348061
0.00345801
0.00341394
0.00328828
0.00313283
0.00285455
0.00251837
0.00200374
0.0014508
0.0010238
0.000887818
0.00113747
0.00158354
0.00213138
0.00262095
0.00299161
0.00323989
-0.000285185
-0.00012617
-5.5109e-05
-1.88219e-05
-7.96803e-05
-0.000120813
-0.000230615
-0.000344169
-0.000611098
-0.000961843
-0.0016021
-0.0023155
-0.00284474
-0.00304784
-0.00291549
-0.00251676
-0.001951
-0.00138187
-0.00089591
-0.000529299
0.00247796
0.00259717
0.00265322
0.00269986
0.00267697
0.00264353
0.00251211
0.00237512
0.00206421
0.00167624
0.000918567
0.000183559
-0.00024915
-0.000194014
0.000213615
0.000771159
0.00130834
0.00174358
0.00207579
0.0023168
0.00029088
0.000348654
0.000355658
0.000357959
0.000326106
0.000334314
0.000266351
0.000205511
-5.07359e-05
-0.000428879
-0.00130562
-0.00214892
-0.0025755
-0.00248178
-0.00197891
-0.00134314
-0.000752257
-0.000310963
-3.79235e-06
0.000187809
0.00158487
0.00167348
0.00171333
0.00174988
0.00171287
0.00168294
0.00156688
0.00144679
0.00115077
0.000728904
-0.000200176
-0.00097099
-0.00120055
-0.000857825
-0.000266445
0.000288726
0.000752433
0.00107366
0.00130922
0.00147253
0.000370696
0.000392111
0.000381873
0.000385354
0.000369837
0.000385562
0.000336363
0.00028936
7.14547e-05
-0.000312702
-0.00126944
-0.00205864
-0.00219998
-0.00176821
-0.00110771
-0.000574988
-0.000163403
8.29798e-05
0.000244238
0.000330625
0.000967419
0.00102023
0.00104049
0.00105744
0.00102545
0.000999545
0.000910653
0.000815477
0.000585664
0.0002092
-0.000674622
-0.00129122
-0.00120099
-0.000747699
-0.000183049
0.000203775
0.000502626
0.000677393
0.00081294
0.00090209
0.000329509
0.000341333
0.000332267
0.000340401
0.000328762
0.000342062
0.000306597
0.000283513
0.00013329
-0.000135304
-0.000946337
-0.00156715
-0.00139598
-0.000962991
-0.000461254
-0.000160891
7.0274e-05
0.000184068
0.00026929
0.000309256
0.00058665
0.000615419
0.000623109
0.000630377
0.000604112
0.000584628
0.000521069
0.000460995
0.000313397
8.69988e-05
-0.00057605
-0.000910429
-0.000694937
-0.000325338
3.16323e-05
0.000211621
0.000364263
0.000435794
0.000507738
0.000550836
0.000266202
0.00027653
0.000272394
0.000281864
0.000272396
0.000285917
0.000263679
0.000279675
0.00020666
0.000171446
-0.000374019
-0.000792596
-0.000621606
-0.00039316
-0.000119439
5.52572e-07
0.000124087
0.00017317
0.000226895
0.000249913
0.000364332
0.000379953
0.000381379
0.000384777
0.000362993
0.000349323
0.000303456
0.000274248
0.000198539
0.000146876
-0.00018988
-0.000322428
-0.000185646
-2.69224e-05
0.000136441
0.000181886
0.000256547
0.000279915
0.00032238
0.000343395
0.000208012
0.000218004
0.000217463
0.000226386
0.000218862
0.0002323
0.000220327
0.000262058
0.000254078
0.000423662
0.000205029
-0.00022792
-0.000194072
-0.000162123
-3.66738e-05
1.11423e-05
9.83537e-05
0.000129296
0.000173776
0.000192007
0.000238197
0.00024729
0.000246285
0.000247877
0.000229774
0.00021929
0.000183119
0.000166708
0.000120672
0.00018805
0.000272718
-3.08659e-05
-4.12261e-05
-2.51326e-05
7.11405e-05
9.1761e-05
0.000157834
0.000175716
0.000210415
0.000223747
0.000162743
0.000171328
0.000172242
0.000179323
0.000173081
0.000182716
0.000173587
0.000199918
0.000179854
0.000239169
0.000132107
-8.80832e-05
-6.91188e-05
-9.1857e-05
-6.22575e-06
9.34738e-06
7.47335e-05
9.62117e-05
0.000133365
0.000148121
0.000168003
0.000173268
0.000171592
0.000172193
0.000157573
0.00014886
0.000120845
0.000104902
7.37274e-05
7.41044e-05
9.73968e-05
-5.63517e-06
3.07119e-05
2.03874e-05
7.89571e-05
7.74266e-05
0.000120078
0.000126054
0.000150518
0.000157937
0.000130642
0.000136904
0.000137927
0.000142727
0.000137224
0.000142756
0.000135895
0.00014801
0.000134464
0.000142455
8.56131e-05
-3.37913e-05
-1.73128e-05
-4.70607e-05
1.1558e-05
1.66531e-05
6.50202e-05
7.89092e-05
0.000107827
0.000118536
0.000128446
0.000131305
0.000129743
0.000129699
0.000118244
0.000111105
9.01697e-05
7.5211e-05
5.28927e-05
3.85518e-05
4.83445e-05
9.58391e-06
5.0188e-05
3.66972e-05
7.82289e-05
6.99284e-05
9.90502e-05
9.97675e-05
0.000117197
0.000121135
0.000109142
0.000112862
0.000113559
0.000116256
0.000110967
0.00011339
0.000107757
0.000111161
0.00010351
9.60473e-05
6.81769e-05
-4.5523e-06
8.11755e-06
-1.77931e-05
2.39381e-05
2.53226e-05
6.12535e-05
7.04821e-05
9.24048e-05
9.94712e-05
0.000105599
0.000106699
0.000105645
0.000105127
9.62502e-05
9.07355e-05
7.55917e-05
6.25335e-05
4.80615e-05
3.17215e-05
3.88049e-05
2.03357e-05
5.54228e-05
4.2825e-05
7.3675e-05
6.50036e-05
8.59048e-05
8.52006e-05
9.80143e-05
9.99813e-05
9.54101e-05
9.66378e-05
9.72118e-05
9.8125e-05
9.29599e-05
9.32788e-05
8.82348e-05
8.64551e-05
8.32536e-05
7.08317e-05
6.00121e-05
1.2578e-05
2.46484e-05
4.3817e-06
3.50846e-05
3.49577e-05
6.11476e-05
6.74516e-05
8.35857e-05
8.77047e-05
9.24079e-05
9.16841e-05
9.14195e-05
9.0348e-05
8.31273e-05
7.905e-05
6.9078e-05
5.7286e-05
4.98369e-05
3.39202e-05
4.14963e-05
2.79723e-05
5.63846e-05
4.46312e-05
6.87488e-05
6.20681e-05
7.7402e-05
7.71475e-05
8.67637e-05
8.72775e-05
8.70247e-05
8.58045e-05
8.67874e-05
8.63365e-05
8.10516e-05
8.03771e-05
7.57857e-05
7.05506e-05
7.08856e-05
5.68541e-05
5.61652e-05
2.36803e-05
3.70505e-05
2.13125e-05
4.46434e-05
4.41779e-05
6.25099e-05
6.72616e-05
7.88097e-05
8.04471e-05
8.47723e-05
8.20849e-05
8.29191e-05
8.10402e-05
7.48503e-05
7.24683e-05
6.5458e-05
5.47257e-05
5.37012e-05
3.70849e-05
4.73108e-05
3.27345e-05
5.65997e-05
4.56662e-05
6.47898e-05
6.08075e-05
7.19838e-05
7.3015e-05
8.00207e-05
7.93897e-05
8.18554e-05
7.86467e-05
8.06586e-05
7.85852e-05
7.35495e-05
7.26609e-05
6.88703e-05
6.07071e-05
6.43667e-05
4.9024e-05
5.57148e-05
3.12672e-05
4.65739e-05
3.29348e-05
5.19501e-05
5.16773e-05
6.41138e-05
6.84653e-05
7.59847e-05
7.60528e-05
8.06024e-05
7.50871e-05
7.79845e-05
7.51823e-05
6.91023e-05
6.82405e-05
6.32926e-05
5.2493e-05
5.69795e-05
3.91425e-05
5.25551e-05
3.5824e-05
5.75848e-05
4.6364e-05
6.26564e-05
6.10925e-05
6.81655e-05
7.13078e-05
7.61117e-05
7.41511e-05
7.9665e-05
7.33822e-05
7.73915e-05
7.35787e-05
6.802e-05
6.90363e-05
6.47911e-05
5.44852e-05
6.30331e-05
4.39853e-05
5.80008e-05
3.50531e-05
5.37206e-05
4.07479e-05
5.65582e-05
5.78184e-05
6.49143e-05
7.02291e-05
7.42035e-05
7.25039e-05
7.78418e-05
6.97963e-05
7.54852e-05
7.08043e-05
6.48835e-05
6.59543e-05
6.21627e-05
4.91932e-05
5.98734e-05
3.88763e-05
5.71918e-05
3.69058e-05
5.96757e-05
4.614e-05
6.14062e-05
6.18848e-05
6.55065e-05
7.11622e-05
7.30546e-05
7.04614e-05
7.90785e-05
6.80002e-05
7.61339e-05
7.10501e-05
6.34702e-05
6.6932e-05
6.28611e-05
4.97761e-05
6.39712e-05
4.03213e-05
6.13394e-05
3.65629e-05
5.9201e-05
4.45558e-05
5.98104e-05
6.25474e-05
6.37212e-05
7.22129e-05
7.36195e-05
6.92585e-05
7.70027e-05
6.44006e-05
7.44764e-05
6.78143e-05
6.00584e-05
6.56169e-05
6.10225e-05
4.50202e-05
6.33696e-05
3.55638e-05
6.20169e-05
3.50591e-05
6.18363e-05
4.49979e-05
5.99631e-05
6.35067e-05
6.23179e-05
7.18083e-05
7.06702e-05
6.60505e-05
7.89972e-05
6.33279e-05
7.64663e-05
6.82658e-05
5.90037e-05
6.71985e-05
6.15643e-05
4.42642e-05
6.66335e-05
3.57659e-05
6.56643e-05
3.5164e-05
6.41221e-05
4.48385e-05
6.08275e-05
6.58337e-05
6.19118e-05
7.44517e-05
7.18538e-05
6.57312e-05
7.76559e-05
5.72165e-05
7.50302e-05
6.58915e-05
5.31012e-05
6.70208e-05
5.98225e-05
3.85396e-05
6.70545e-05
2.96726e-05
6.66458e-05
3.05549e-05
6.46175e-05
4.1371e-05
5.7823e-05
6.58036e-05
5.69174e-05
7.31053e-05
6.86524e-05
5.97122e-05
7.96341e-05
5.68468e-05
7.8289e-05
6.57431e-05
5.28672e-05
6.95052e-05
6.00507e-05
3.67267e-05
7.12658e-05
2.82704e-05
7.13062e-05
2.96601e-05
6.86372e-05
4.123e-05
6.02248e-05
6.84102e-05
5.73789e-05
7.71501e-05
6.94209e-05
6.05393e-05
7.84882e-05
4.80191e-05
7.78592e-05
6.26218e-05
4.36688e-05
7.07067e-05
5.80325e-05
2.78981e-05
7.23309e-05
1.93402e-05
7.24334e-05
2.15316e-05
6.82054e-05
3.36632e-05
5.44578e-05
6.74877e-05
4.91195e-05
7.57254e-05
6.46098e-05
5.1321e-05
8.15918e-05
4.72583e-05
8.19799e-05
6.24786e-05
4.24905e-05
7.42134e-05
5.76761e-05
2.58524e-05
7.69009e-05
1.72601e-05
7.73194e-05
1.99862e-05
7.28072e-05
3.25806e-05
5.77537e-05
7.12366e-05
4.89912e-05
8.05537e-05
6.54709e-05
5.15276e-05
8.10246e-05
3.20696e-05
8.47369e-05
5.90084e-05
2.65019e-05
7.92988e-05
5.5506e-05
8.52099e-06
8.15218e-05
8.497e-07
8.15238e-05
4.30372e-06
7.43653e-05
1.77652e-05
4.8499e-05
7.09322e-05
3.42299e-05
8.12029e-05
5.93389e-05
3.67071e-05
8.36215e-05
3.21628e-05
8.85873e-05
5.67039e-05
2.61639e-05
8.3029e-05
5.30218e-05
7.88336e-06
8.4713e-05
-3.54422e-07
8.46951e-05
3.40764e-06
7.74756e-05
1.69035e-05
5.24272e-05
7.30999e-05
3.4445e-05
8.54481e-05
5.79353e-05
3.74691e-05
8.7221e-05
4.29871e-06
0.000100641
5.06124e-05
-6.50197e-06
9.95062e-05
4.89356e-05
-2.72374e-05
9.79372e-05
-3.22009e-05
9.65421e-05
-2.731e-05
8.53732e-05
-1.30462e-05
3.84746e-05
7.7916e-05
7.14445e-06
9.38473e-05
4.83571e-05
9.5544e-06
-0.0149497
-0.0143247
-0.0138109
-0.0134357
-0.0132219
-0.0132058
-0.013395
-0.0137673
-0.0143088
-0.0149765
-0.0157258
-0.0164776
-0.0171395
-0.0176077
-0.0178141
-0.017767
-0.0174815
-0.0169859
-0.0163464
-0.0156431
0.00141564
0.00152449
0.00149528
0.00138193
0.00123487
0.00111137
0.000935025
0.000702866
0.000392765
2.06905e-05
-0.000418879
-0.000873679
-0.00125307
-0.00146172
-0.00140891
-0.00105284
-0.000506979
0.000109728
0.000686377
0.00113707
-0.00310466
-0.00274854
-0.00250905
-0.00237059
-0.00238096
-0.00252208
-0.00276673