/*--------------------------------*- C++ -*----------------------------------*\
| =========                 |                                                 |
| \\      /  F ield         | OpenFOAM: The Open Source CFD Toolbox           |
|  \\    /   O peration     | Version:  2.4.0                                 |
|   \\  /    A nd           | Web:      www.OpenFOAM.org                      |
|    \\/     M anipulation  |                                                 |
\*---------------------------------------------------------------------------*/
FoamFile
{
    version     2.0;
    format      ascii;
    class       volScalarField;
    location    "630";
    object      p;
}
// * * * * * * * * * * * * * * * * * * * * * * * * * * * * * * * * * * * * * //

dimensions      [0 2 -2 0 0 0 0];

internalField   nonuniform List<scalar> 
283312
(
-0.00626974
-0.00632797
-0.00656751
-0.00690838
-0.00726261
-0.00756102
-0.00779543
-0.00796035
-0.00808789
-0.00820134
-0.00832074
-0.00843261
-0.00850491
-0.0084819
-0.00833046
-0.00805775
-0.00767455
-0.00721787
-0.00676911
-0.00642662
0.00215304
0.00164905
0.00122071
0.000949318
0.000848029
0.000911864
0.00105348
0.00119348
0.00130363
0.00139134
0.00145892
0.00153809
0.00166687
0.00186792
0.00215449
0.00252558
0.00284277
0.00299603
0.00292136
0.00261716
-0.00230082
-0.00215174
-0.00193002
-0.00169106
-0.00149978
-0.00140379
-0.00138653
-0.0013942
-0.00144483
-0.00148827
-0.00152024
-0.00149983
-0.00142783
-0.00132602
-0.00127674
-0.00137922
-0.00161515
-0.0019058
-0.00216622
-0.00230979
0.00148386
0.00165529
0.00179834
0.00191273
0.00199555
0.00206395
0.00207049
0.00207639
0.00204248
0.00205232
0.00206869
0.00211615
0.00214702
0.00210891
0.00198647
0.0017499
0.00150251
0.00131965
0.00126415
0.00133652
-0.000744061
-0.00054643
-0.000430228
-0.000352502
-0.000349732
-0.000337603
-0.000349753
-0.000336798
-0.000367556
-0.000345699
-0.000356143
-0.000412025
-0.000585796
-0.000895943
-0.00131413
-0.00165026
-0.0017422
-0.00160443
-0.00132279
-0.00100901
0.00120489
0.00131407
0.00137168
0.00141709
0.00143069
0.00143787
0.00140324
0.00138991
0.00132511
0.00133391
0.00127647
0.00115176
0.000879284
0.000526109
0.000265056
0.000194628
0.000321337
0.000562118
0.000825887
0.00104856
-0.000150006
-0.000110697
-0.000103954
-9.83327e-05
-0.000109734
-8.47645e-05
-8.52793e-05
-5.6816e-05
-8.85952e-05
-6.48341e-05
-0.000182344
-0.000455257
-0.000865877
-0.00126904
-0.00140013
-0.00124845
-0.000936759
-0.000624526
-0.000382337
-0.000229348
0.000764035
0.000812915
0.0008363
0.000861082
0.000849289
0.000845606
0.000807974
0.000787497
0.000718438
0.000707499
0.000546888
0.00023152
-0.000173219
-0.00036232
-0.000309435
-7.78863e-05
0.000206566
0.000433312
0.000595529
0.000699033
1.35342e-07
1.74461e-06
-9.23988e-06
-1.09294e-05
-1.23728e-05
9.5577e-06
1.14041e-05
3.13306e-05
3.49629e-06
6.60469e-06
-0.000188946
-0.000597233
-0.00100266
-0.00108574
-0.000870715
-0.000579563
-0.000314743
-0.000150328
-5.41801e-05
-1.20392e-05
0.000441913
0.000466402
0.000477126
0.000487557
0.000474689
0.000466273
0.000435824
0.000413481
0.000360095
0.000342695
0.000161459
-0.000210364
-0.000462727
-0.00044853
-0.000215775
9.75032e-06
0.000194599
0.000300043
0.000370885
0.000412524
4.42288e-05
4.21412e-05
3.32193e-05
3.50458e-05
3.42905e-05
4.93471e-05
4.97043e-05
6.60101e-05
4.88437e-05
7.34404e-05
-0.000104183
-0.000534995
-0.000716959
-0.000634389
-0.000390596
-0.00020529
-6.71561e-05
-4.11778e-06
3.28157e-05
4.34445e-05
0.000251185
0.000262902
0.000266683
0.000269804
0.000258621
0.000249849
0.000226245
0.00020864
0.000173235
0.000192174
5.50959e-05
-0.000227744
-0.00033236
-0.000226198
-4.54243e-05
6.89702e-05
0.000154732
0.000191214
0.00022141
0.000237339
5.52029e-05
5.51351e-05
5.06215e-05
5.40517e-05
5.28554e-05
6.41189e-05
6.3757e-05
8.73116e-05
8.39343e-05
0.000190269
7.55061e-05
-0.000272259
-0.000356336
-0.000290632
-0.000145008
-6.32326e-05
4.77722e-06
2.88359e-05
4.88243e-05
5.33982e-05
0.000145653
0.000150813
0.000151
0.000151284
0.000141499
0.000133706
0.000114547
0.000102377
8.17176e-05
0.000139063
9.81024e-05
-5.16292e-05
-0.00010876
-5.34799e-05
3.36754e-05
7.06526e-05
0.000108288
0.000118098
0.000133056
0.000138847
5.29575e-05
5.46564e-05
5.31639e-05
5.67075e-05
5.54976e-05
6.44772e-05
6.47673e-05
9.32968e-05
0.000105263
0.000280155
0.000267024
-5.06566e-05
-0.000137032
-0.000139588
-7.50606e-05
-3.4714e-05
1.12361e-05
2.69891e-05
4.41458e-05
4.90264e-05
8.91157e-05
9.13097e-05
9.00921e-05
8.93006e-05
8.09537e-05
7.40733e-05
5.76982e-05
4.70759e-05
2.90048e-05
8.60751e-05
0.000195901
3.70535e-05
-1.94105e-05
-1.94057e-05
2.15368e-05
3.49299e-05
6.34522e-05
7.02492e-05
8.19798e-05
8.50402e-05
4.6384e-05
4.8573e-05
4.84689e-05
5.12984e-05
5.01923e-05
5.61813e-05
5.598e-05
7.23534e-05
6.84958e-05
0.000106985
6.6469e-05
-3.07774e-05
-4.0142e-05
-5.48687e-05
-2.08976e-05
-1.19113e-05
1.4778e-05
2.35167e-05
3.72804e-05
4.18358e-05
5.95428e-05
6.02864e-05
5.87812e-05
5.7685e-05
5.09592e-05
4.50846e-05
3.22846e-05
2.1869e-05
9.77279e-06
9.09291e-06
4.07778e-05
9.83096e-06
1.88955e-05
1.65491e-05
3.63676e-05
3.51588e-05
4.91109e-05
4.92252e-05
5.62364e-05
5.7145e-05
3.95864e-05
4.14064e-05
4.16895e-05
4.35379e-05
4.24342e-05
4.58668e-05
4.58143e-05
5.38743e-05
5.1465e-05
5.8153e-05
3.35677e-05
-1.54751e-05
-1.68326e-05
-3.05281e-05
-8.3644e-06
-4.55689e-06
1.45911e-05
2.06579e-05
3.16235e-05
3.53762e-05
4.37971e-05
4.38944e-05
4.26015e-05
4.15069e-05
3.63617e-05
3.16343e-05
2.21416e-05
1.3228e-05
4.42201e-06
-2.43837e-06
1.15553e-05
6.41682e-06
2.2748e-05
2.05357e-05
3.41702e-05
3.02797e-05
3.89025e-05
3.74296e-05
4.21045e-05
4.21979e-05
3.4121e-05
3.52207e-05
3.54736e-05
3.64242e-05
3.51142e-05
3.67186e-05
3.64947e-05
3.97675e-05
3.90724e-05
3.78453e-05
2.539e-05
-5.23317e-06
-6.21064e-06
-1.71482e-05
-1.94423e-06
4.36423e-07
1.47175e-05
1.92827e-05
2.78206e-05
3.0538e-05
3.50634e-05
3.48386e-05
3.39452e-05
3.29666e-05
2.91549e-05
2.55994e-05
1.88308e-05
1.17234e-05
5.84285e-06
-9.17028e-07
6.80713e-06
6.97645e-06
2.18226e-05
1.97558e-05
2.98183e-05
2.60929e-05
3.20269e-05
3.05794e-05
3.39894e-05
3.38448e-05
3.02549e-05
3.05455e-05
3.07471e-05
3.09608e-05
2.94885e-05
2.98322e-05
2.91991e-05
2.96645e-05
3.00581e-05
2.61777e-05
2.10643e-05
7.85377e-07
1.06844e-06
-6.94513e-06
3.90295e-06
5.45008e-06
1.58482e-05
1.92373e-05
2.56042e-05
2.73443e-05
3.01483e-05
2.95193e-05
2.90785e-05
2.8155e-05
2.52094e-05
2.26131e-05
1.84066e-05
1.24989e-05
9.3103e-06
3.23377e-06
8.50166e-06
8.23259e-06
2.00088e-05
1.76114e-05
2.55631e-05
2.28958e-05
2.72462e-05
2.64451e-05
2.91233e-05
2.88111e-05
2.77345e-05
2.72061e-05
2.752e-05
2.72577e-05
2.55554e-05
2.52108e-05
2.42464e-05
2.28778e-05
2.39369e-05
1.92593e-05
1.82225e-05
4.7235e-06
6.75267e-06
9.89649e-07
9.01621e-06
1.00769e-05
1.7271e-05
1.98438e-05
2.44598e-05
2.52722e-05
2.72916e-05
2.61704e-05
2.61935e-05
2.5185e-05
2.28049e-05
2.12051e-05
1.83583e-05
1.3519e-05
1.28518e-05
6.62508e-06
1.15807e-05
9.01748e-06
1.84065e-05
1.58809e-05
2.20739e-05
2.06808e-05
2.39772e-05
2.39812e-05
2.60764e-05
2.56201e-05
2.5987e-05
2.49974e-05
2.55822e-05
2.4712e-05
2.31236e-05
2.24064e-05
2.15318e-05
1.86809e-05
2.02996e-05
1.52306e-05
1.69628e-05
7.57567e-06
1.1137e-05
6.40938e-06
1.29335e-05
1.3654e-05
1.85878e-05
2.06957e-05
2.37136e-05
2.4046e-05
2.56855e-05
2.36322e-05
2.4462e-05
2.33674e-05
2.10904e-05
2.01358e-05
1.83248e-05
1.39512e-05
1.5197e-05
8.86354e-06
1.39797e-05
9.66639e-06
1.75657e-05
1.4641e-05
1.99071e-05
1.95016e-05
2.15965e-05
2.26074e-05
2.42778e-05
2.34727e-05
2.53572e-05
2.33725e-05
2.45188e-05
2.30609e-05
2.12421e-05
2.12585e-05
1.98684e-05
1.62314e-05
1.92493e-05
1.27242e-05
1.72015e-05
8.92769e-06
1.42939e-05
1.01882e-05
1.53472e-05
1.64818e-05
1.93823e-05
2.15416e-05
2.32068e-05
2.28778e-05
2.43533e-05
2.18372e-05
2.35262e-05
2.18109e-05
1.9912e-05
1.95134e-05
1.84013e-05
1.33818e-05
1.67228e-05
9.64462e-06
1.57957e-05
9.84229e-06
1.75829e-05
1.35191e-05
1.85186e-05
1.87834e-05
2.01228e-05
2.20015e-05
2.27505e-05
2.2093e-05
2.52462e-05
2.14806e-05
2.40908e-05
2.24893e-05
1.97618e-05
2.03839e-05
1.91916e-05
1.46755e-05
1.91728e-05
1.13476e-05
1.79592e-05
9.72161e-06
1.65635e-05
1.21726e-05
1.71581e-05
1.8536e-05
1.91126e-05
2.23192e-05
2.33081e-05
2.18296e-05
2.38645e-05
1.99621e-05
2.29891e-05
2.07937e-05
1.83053e-05
1.95056e-05
1.81948e-05
1.23462e-05
1.82123e-05
8.83787e-06
1.75626e-05
8.977e-06
1.77308e-05
1.26209e-05
1.73312e-05
1.87802e-05
1.86726e-05
2.17811e-05
2.16487e-05
2.03575e-05
2.50882e-05
2.02223e-05
2.41767e-05
2.15142e-05
1.85511e-05
2.04117e-05
1.88143e-05
1.29414e-05
1.9837e-05
9.99948e-06
1.92115e-05
9.61819e-06
1.85485e-05
1.2753e-05
1.78825e-05
1.97563e-05
1.89121e-05
2.31182e-05
2.27036e-05
2.08912e-05
2.40707e-05
1.72672e-05
2.2956e-05
2.03818e-05
1.56969e-05
1.99658e-05
1.79253e-05
1.03423e-05
1.93954e-05
7.09793e-06
1.89718e-05
7.42076e-06
1.82881e-05
1.11237e-05
1.61225e-05
1.93844e-05
1.64094e-05
2.18542e-05
2.10099e-05
1.78054e-05
2.5153e-05
1.83459e-05
2.46811e-05
2.07504e-05
1.68883e-05
2.1092e-05
1.83923e-05
1.06944e-05
2.13677e-05
7.71487e-06
2.10965e-05
8.04771e-06
2.02283e-05
1.19521e-05
1.79761e-05
2.06223e-05
1.77103e-05
2.40066e-05
2.19809e-05
1.9477e-05
2.41561e-05
1.40266e-05
2.37934e-05
1.92361e-05
1.23528e-05
2.11387e-05
1.74369e-05
6.62521e-06
2.1107e-05
3.59151e-06
2.08148e-05
4.23936e-06
1.92914e-05
8.31621e-06
1.46169e-05
1.96849e-05
1.35661e-05
2.25459e-05
1.94876e-05
1.47198e-05
2.58202e-05
1.54953e-05
2.56574e-05
1.97798e-05
1.36873e-05
2.23954e-05
1.76892e-05
7.65553e-06
2.29513e-05
4.5754e-06
2.28188e-05
5.33101e-06
2.1478e-05
9.46288e-06
1.73872e-05
2.16346e-05
1.5223e-05
2.49634e-05
2.08107e-05
1.66266e-05
2.50889e-05
7.5847e-06
2.63958e-05
1.82534e-05
5.38928e-06
2.43558e-05
1.68446e-05
-1.25164e-06
2.46736e-05
-3.7289e-06
2.4328e-05
-2.66751e-06
2.17186e-05
1.89398e-06
1.20256e-05
2.10873e-05
7.47117e-06
2.46144e-05
1.7827e-05
8.76298e-06
2.62147e-05
1.03381e-05
2.75047e-05
1.76162e-05
8.19865e-06
2.5009e-05
1.59317e-05
1.69202e-06
2.51563e-05
-1.26907e-06
2.48628e-05
-2.00879e-07
2.26542e-05
4.18468e-06
1.55156e-05
2.18275e-05
1.01638e-05
2.62348e-05
1.79923e-05
1.1783e-05
2.82832e-05
-6.76452e-06
3.40719e-05
1.44178e-05
-1.19752e-05
3.40251e-05
1.38325e-05
-1.99369e-05
3.2384e-05
-2.06821e-05
3.1314e-05
-1.89726e-05
2.70517e-05
-1.40784e-05
6.78616e-06
2.45746e-05
-6.66893e-06
3.08993e-05
1.29156e-05
-5.60532e-06
-0.0109869
-0.0105944
-0.0102887
-0.0100773
-0.009961
-0.00994868
-0.0100698
-0.0103047
-0.0106476
-0.0110743
-0.0115625
-0.0120609
-0.0125066
-0.0128215
-0.0129548
-0.0129171
-0.0127164
-0.0123683
-0.011923
-0.0114435
0.00232621
0.00228031
0.00214922
0.00198783
0.00183383
0.001744
0.00167497
0.00158984
0.00146776
0.00131344
0.00111143
0.000888396
0.000699384
0.000605157
0.000667445
0.000935757
0.00131238
0.00170486
0.0020361
0.00225042
-0.00233642
-0.00210109
-0.00191569
-0.00178005
-0.00173072
-0.00178674
-0.00191444
-0.00206435
-0.00228238
-0.00253851
-0.00286995
-0.00322096
-0.00352357
-0.00369322
-0.00372968
-0.00365452
-0.00346613
-0.00318807
-0.00288642
-0.00259712
0.00291029
0.00297367
0.00299788
0.00301531
0.00302026
0.00302018
0.00295353
0.00287541
0.00270879
0.00251591
0.00218813
0.00181916
0.00151273
0.00138237
0.00150994
0.00176955
0.00210801
0.00241337
0.00264771
0.00281064
-0.000458585
-0.0003109
-0.000238
-0.000191034
-0.000228551
-0.000244327
-0.000305698
-0.000352602
-0.000508079
-0.000704296
-0.00112499
-0.00163085
-0.00205872
-0.00228685
-0.00231016
-0.0021276
-0.00177022
-0.0013623
-0.000981272
-0.000674097
0.00202442
0.00212604
0.00217663
0.00222239
0.00221866
0.00220853
0.00212568
0.00205411
0.00185854
0.00163444
0.00112052
0.000583575
0.000208273
0.000148371
0.000363924
0.000721956
0.0011002
0.00142775
0.00169152
0.00188961
6.06507e-05
0.000104662
0.000108769
0.000112964
9.06044e-05
0.000112615
8.22521e-05
7.50057e-05
-7.18701e-05
-0.000282446
-0.000891026
-0.00153956
-0.00194215
-0.00199608
-0.00169888
-0.00124499
-0.000786639
-0.000429661
-0.000177204
-2.09301e-05
0.00125596
0.0013261
0.00135883
0.00139283
0.00136832
0.00135443
0.00127738
0.00121143
0.00102325
0.000771393
0.00011562
-0.000489574
-0.000756651
-0.000571887
-0.000172673
0.00024029
0.000601655
0.000855761
0.00104165
0.00116893
0.000173769
0.000183596
0.000171163
0.000172265
0.000164773
0.000189047
0.000169169
0.000164377
4.11017e-05
-0.00018116
-0.000863756
-0.00150395
-0.00171871
-0.00145618
-0.000968704
-0.000552347
-0.000224434
-3.10394e-05
9.0749e-05
0.000150612
0.000743454
0.000783611
0.000799912
0.000815479
0.00079268
0.000777396
0.000717489
0.000662391
0.000518163
0.000290325
-0.000337116
-0.000847109
-0.000856233
-0.000556913
-0.000132866
0.000166548
0.000398582
0.000530504
0.000630953
0.000695517
0.00017902
0.000182783
0.000172527
0.000178234
0.00017287
0.000191191
0.000176548
0.00018054
9.87219e-05
-4.70236e-05
-0.000623432
-0.00115687
-0.00109762
-0.000794604
-0.000407465
-0.000171901
6.53301e-06
8.88861e-05
0.000147367
0.000170257
0.00043652
0.000457477
0.000463513
0.00046966
0.00045051
0.000437503
0.000393626
0.000357591
0.000265866
0.000139352
-0.000326243
-0.000619865
-0.000506727
-0.000239625
3.32966e-05
0.000170645
0.000283866
0.000332822
0.000382685
0.000411438
0.000155861
0.000160498
0.000155579
0.000162901
0.000158193
0.000173648
0.00016441
0.00019083
0.000156144
0.000180894
-0.000199741
-0.00057526
-0.000489156
-0.000328002
-0.000117499
-2.51225e-05
6.68784e-05
9.95001e-05
0.000135266
0.000147625
0.000262259
0.000272909
0.000273749
0.000276106
0.000259871
0.000249762
0.000216737
0.000198038
0.000150913
0.000142315
-8.04713e-05
-0.000198059
-0.00012554
-1.03209e-05
0.000111802
0.000143398
0.000195161
0.000207826
0.000235749
0.00024834
0.000127521
0.000133295
0.000132139
0.000139193
0.000135298
0.000148783
0.000144393
0.000185347
0.000191666
0.000365576
0.000228874
-0.000146373
-0.000154564
-0.000139836
-4.82543e-05
-1.03902e-05
5.47046e-05
7.59264e-05
0.000106757
0.000117688
0.000166164
0.000171879
0.000170706
0.000171401
0.00015776
0.000149358
0.00012233
0.000109803
7.80665e-05
0.000145086
0.000251639
8.32805e-06
-2.2943e-05
-1.50782e-05
5.42496e-05
6.77592e-05
0.000114967
0.000125814
0.000149141
0.000156849
0.000102666
0.000108157
0.000108637
0.000114261
0.000110954
0.000120336
0.000116541
0.000141313
0.000130457
0.000185717
0.000108641
-6.10596e-05
-5.50115e-05
-7.62973e-05
-1.48445e-05
-4.36389e-06
4.27441e-05
5.73106e-05
8.34143e-05
9.29055e-05
0.000114306
0.000117279
0.000115616
0.00011555
0.000104557
9.7361e-05
7.6271e-05
6.32564e-05
4.14079e-05
4.32987e-05
7.53007e-05
4.57347e-06
2.91001e-05
2.15194e-05
6.1565e-05
5.82066e-05
8.67185e-05
8.86095e-05
0.000104391
0.000108086
8.38014e-05
8.79592e-05
8.87522e-05
9.25726e-05
8.95625e-05
9.50946e-05
9.22668e-05
0.000104265
9.6781e-05
0.000106188
6.34067e-05
-2.57687e-05
-1.74726e-05
-4.13633e-05
2.93394e-07
3.54431e-06
3.81844e-05
4.77829e-05
6.82664e-05
7.54133e-05
8.58893e-05
8.73026e-05
8.58316e-05
8.53879e-05
7.68852e-05
7.09899e-05
5.52819e-05
4.32347e-05
2.73662e-05
1.71077e-05
3.10761e-05
8.91388e-06
3.95647e-05
3.0938e-05
5.91644e-05
5.1482e-05
7.03297e-05
6.89207e-05
7.98922e-05
8.14744e-05
7.06252e-05
7.31115e-05
7.37286e-05
7.59007e-05
7.28199e-05
7.55277e-05
7.30739e-05
7.75047e-05
7.37394e-05
7.00458e-05
4.88334e-05
-5.59446e-06
5.00108e-07
-1.95296e-05
9.78684e-06
1.08978e-05
3.66758e-05
4.33142e-05
5.89589e-05
6.3778e-05
6.98123e-05
7.01862e-05
6.92151e-05
6.85672e-05
6.21265e-05
5.76331e-05
4.63688e-05
3.61409e-05
2.57608e-05
1.41794e-05
2.27214e-05
1.40107e-05
4.07086e-05
3.28649e-05
5.37879e-05
4.64143e-05
5.974e-05
5.78585e-05
6.58675e-05
6.64285e-05
6.1998e-05
6.27767e-05
6.32984e-05
6.40935e-05
6.09355e-05
6.17124e-05
5.92166e-05
5.91795e-05
5.81679e-05
5.01594e-05
4.1802e-05
6.17996e-06
1.24199e-05
-2.85859e-06
1.84775e-05
1.86749e-05
3.74408e-05
4.21084e-05
5.36501e-05
5.65015e-05
6.0671e-05
5.99195e-05
5.96159e-05
5.87012e-05
5.35859e-05
5.03075e-05
4.31162e-05
3.41111e-05
2.87466e-05
1.76149e-05
2.47565e-05
1.81922e-05
3.95123e-05
3.20099e-05
4.84004e-05
4.28948e-05
5.26335e-05
5.15316e-05
5.75956e-05
5.74197e-05
5.66527e-05
5.57391e-05
5.65224e-05
5.63211e-05
5.29318e-05
5.27084e-05
5.01699e-05
4.71844e-05
4.82476e-05
3.88365e-05
3.7923e-05
1.37752e-05
2.15605e-05
1.00096e-05
2.60578e-05
2.5995e-05
3.90373e-05
4.25699e-05
5.08414e-05
5.19667e-05
5.54024e-05
5.34068e-05
5.39217e-05
5.2536e-05
4.82637e-05
4.63707e-05
4.14309e-05
3.3529e-05
3.2806e-05
2.11319e-05
2.93029e-05
2.07491e-05
3.82472e-05
3.11415e-05
4.40361e-05
4.07902e-05
4.79342e-05
4.80719e-05
5.2557e-05
5.18006e-05
5.32432e-05
5.1094e-05
5.25329e-05
5.11327e-05
4.79237e-05
4.72911e-05
4.51555e-05
3.97409e-05
4.27103e-05
3.23515e-05
3.67217e-05
1.90311e-05
2.86287e-05
1.88237e-05
3.18818e-05
3.18178e-05
4.06563e-05
4.37869e-05
4.91391e-05
4.9259e-05
5.25237e-05
4.85851e-05
5.06004e-05
4.86903e-05
4.45302e-05
4.37273e-05
4.04078e-05
3.2722e-05
3.58195e-05
2.34289e-05
3.31924e-05
2.24625e-05
3.7932e-05
3.04856e-05
4.14523e-05
4.00888e-05
4.45539e-05
4.64263e-05
4.9618e-05
4.80537e-05
5.19182e-05
4.76669e-05
5.0411e-05
4.77726e-05
4.4163e-05
4.4862e-05
4.21377e-05
3.51554e-05
4.13207e-05
2.82039e-05
3.78214e-05
2.15427e-05
3.38692e-05
2.48311e-05
3.55075e-05
3.65186e-05
4.15453e-05
4.5228e-05
4.80379e-05
4.69374e-05
5.04448e-05
4.50137e-05
4.89043e-05
4.5673e-05
4.18384e-05
4.22655e-05
3.99255e-05
3.07594e-05
3.81281e-05
2.37104e-05
3.64513e-05
2.29517e-05
3.87659e-05
2.95104e-05
3.98443e-05
3.99346e-05
4.23134e-05
4.59959e-05
4.7227e-05
4.55077e-05
5.1656e-05
4.39697e-05
4.96207e-05
4.62617e-05
4.10999e-05
4.33096e-05
4.07728e-05
3.18811e-05
4.16518e-05
2.54757e-05
3.97867e-05
2.26543e-05
3.78054e-05
2.7822e-05
3.81518e-05
4.0054e-05
4.0793e-05
4.67123e-05
4.78783e-05
4.48052e-05
4.98064e-05
4.13109e-05
4.81446e-05
4.36408e-05
3.85579e-05
4.21177e-05
3.92386e-05
2.8094e-05
4.07106e-05
2.15392e-05
3.98038e-05
2.14086e-05
3.97722e-05
2.8291e-05
3.83186e-05
4.06586e-05
3.98453e-05
4.61831e-05
4.54168e-05
4.23654e-05
5.15871e-05
4.10055e-05
4.98923e-05
4.43427e-05
3.82416e-05
4.34699e-05
3.98923e-05
2.81268e-05
4.33046e-05
2.23722e-05
4.25776e-05
2.184e-05
4.13475e-05
2.82663e-05
3.90663e-05
4.2381e-05
3.98052e-05
4.83206e-05
4.66817e-05
4.25973e-05
5.03252e-05
3.62031e-05
4.84437e-05
4.24907e-05
3.35959e-05
4.31089e-05
3.84721e-05
2.37109e-05
4.32058e-05
1.75586e-05
4.28659e-05
1.81859e-05
4.13943e-05
2.55372e-05
3.64914e-05
4.21221e-05
3.58033e-05
4.68765e-05
4.40742e-05
3.77611e-05
5.20016e-05
3.67574e-05
5.11419e-05
4.26669e-05
3.4284e-05
4.50338e-05
3.88729e-05
2.30845e-05
4.64925e-05
1.72725e-05
4.64535e-05
1.81384e-05
4.45545e-05
2.59867e-05
3.88434e-05
4.4157e-05
3.68723e-05
5.02166e-05
4.50797e-05
3.92776e-05
5.08562e-05
2.97498e-05
5.03985e-05
4.0195e-05
2.69542e-05
4.56672e-05
3.72704e-05
1.62194e-05
4.68461e-05
1.03021e-05
4.68149e-05
1.17524e-05
4.37496e-05
1.99923e-05
3.39308e-05
4.31212e-05
3.02341e-05
4.86226e-05
4.11755e-05
3.18137e-05
5.34642e-05
3.03217e-05
5.3618e-05
4.0474e-05
2.72393e-05
4.81954e-05
3.72452e-05
1.58829e-05
5.02557e-05
9.89156e-06
5.04676e-05
1.16637e-05
4.73856e-05
2.01692e-05
3.73169e-05
4.61814e-05
3.12122e-05
5.25313e-05
4.2441e-05
3.31475e-05
5.28017e-05
1.785e-05
5.55112e-05
3.77864e-05
1.41222e-05
5.20012e-05
3.56038e-05
1.70865e-06
5.36722e-05
-3.47177e-06
5.35343e-05
-1.14898e-06
4.83595e-05
8.06659e-06
2.94475e-05
4.57277e-05
1.90402e-05
5.27084e-05
3.75486e-05
2.09073e-05
5.48604e-05
1.95022e-05
5.81959e-05
3.6221e-05
1.55906e-05
5.43565e-05
3.37683e-05
3.09771e-06
5.56373e-05
-2.68454e-06
5.55067e-05
-2.00797e-07
5.05509e-05
8.93353e-06
3.35712e-05
4.72911e-05
2.07088e-05
5.58982e-05
3.69268e-05
2.30816e-05
5.81342e-05
-5.05581e-06
6.85116e-05
3.11232e-05
-1.32673e-05
6.84301e-05
3.03285e-05
-2.79154e-05
6.69529e-05
-3.07364e-05
6.5638e-05
-2.72758e-05
5.74357e-05
-1.74175e-05
2.13846e-05
5.15617e-05
-3.39045e-06
6.32256e-05
2.89525e-05
-1.63905e-06
-0.0135297
-0.0129807
-0.0125315
-0.0122039
-0.0120121
-0.0119858
-0.0121411
-0.0124565
-0.0129212
-0.0134993
-0.0141545
-0.0148183
-0.0154095
-0.0158337
-0.016027
-0.0159973
-0.0157563
-0.0153252
-0.0147626
-0.0141414
0.00193439
0.00199128
0.00192508
0.0017907
0.00163345
0.00151836
0.00138221
0.00120739
0.000972655
0.000687761
0.000341662
-2.52697e-05
-0.000337014
-0.000510493
-0.000465353
-0.000152146
0.000325969
0.000859911
0.00135106
0.00172257
-0.00274639
-0.00243863
-0.00222235
-0.00208734
-0.00207331
-0.00218081
-0.00237766
-0.00261754
-0.00295218
-0.00334966
-0.00384934
-0.00437146
-0.00481344
-0.00505162
-0.0050794
-0.0048974
-0.00453534
-0.00405834
-0.00356793
-0.00312196
0.00338186
0.00345931
0.00347787
0.0034806
0.003458
0.00341394
0.00328828
0.00313282
0.00285454
0.00251837
0.00200373
0.00145079
0.00102379
0.000887802
0.00113746
0.00158352
0.00213137
0.00262093
0.0029916
0.00323988
-0.000285176
-0.000126159
-5.50981e-05
-1.88103e-05
-7.96682e-05
-0.0001208
-0.000230602
-0.000344155
-0.000611083
-0.000961828
-0.00160208
-0.00231549
-0.00284473
-0.00304784
-0.00291549
-0.00251676
-0.001951
-0.00138187
-0.000895904
-0.000529291
0.00247795
0.00259716
0.00265321
0.00269985
0.00267696
0.00264352
0.0025121
0.00237511
0.0020642
0.00167623
0.000918559
0.000183554
-0.000249156
-0.000194024
0.000213601
0.000771142
0.00130832
0.00174356
0.00207577
0.00231679
0.000290879
0.000348654
0.000355659
0.000357961
0.000326108
0.000334317
0.000266354
0.000205514
-5.07326e-05
-0.000428874
-0.00130561
-0.00214891
-0.00257548
-0.00248176
-0.0019789
-0.00134313
-0.000752257
-0.000310965
-3.7944e-06
0.000187807
0.00158486
0.00167347
0.00171332
0.00174987
0.00171286
0.00168293
0.00156687
0.00144678
0.00115076
0.000728899
-0.000200173
-0.000970978
-0.00120053
-0.000857814
-0.000266441
0.000288721
0.000752424
0.00107365
0.00130921
0.00147252
0.000370692
0.000392108
0.000381871
0.000385352
0.000369835
0.000385561
0.000336362
0.000289359
7.14544e-05
-0.0003127
-0.00126943
-0.00205862
-0.00219995
-0.00176819
-0.0011077
-0.000574985
-0.000163405
8.29754e-05
0.000244233
0.00033062
0.00096741
0.00102022
0.00104048
0.00105743
0.00102544
0.000999538
0.000910646
0.000815471
0.00058566
0.000209199
-0.000674614
-0.0012912
-0.00120097
-0.000747686
-0.000183044
0.000203773
0.00050262
0.000677386
0.000812932
0.000902081
0.000329505
0.00034133
0.000332264
0.000340398
0.00032876
0.000342059
0.000306595
0.000283511
0.000133289
-0.000135304
-0.00094633
-0.00156714
-0.00139597
-0.000962979
-0.000461249
-0.000160891
7.02709e-05
0.000184064
0.000269285
0.000309251
0.000586644
0.000615414
0.000623104
0.000630371
0.000604107
0.000584623
0.000521064
0.000460991
0.000313394
8.69972e-05
-0.000576045
-0.00091042
-0.000694928
-0.000325333
3.16328e-05
0.000211619
0.000364259
0.000435789
0.000507733
0.00055083
0.000266199
0.000276527
0.000272391
0.000281862
0.000272393
0.000285915
0.000263677
0.000279673
0.000206658
0.000171446
-0.000374015
-0.000792588
-0.000621599
-0.000393156
-0.000119439
5.50824e-07
0.000124084
0.000173167
0.000226891
0.00024991
0.000364328
0.00037995
0.000381375
0.000384773
0.000362989
0.00034932
0.000303453
0.000274245
0.000198537
0.000146874
-0.000189878
-0.000322424
-0.000185644
-2.69223e-05
0.00013644
0.000181884
0.000256544
0.000279911
0.000322377
0.000343392
0.00020801
0.000218001
0.000217461
0.000226383
0.00021886
0.000232297
0.000220324
0.000262055
0.000254076
0.000423661
0.000205029
-0.00022792
-0.000194071
-0.000162123
-3.6675e-05
1.11403e-05
9.83513e-05
0.000129293
0.000173774
0.000192004
0.000238194
0.000247287
0.000246282
0.000247874
0.000229771
0.000219287
0.000183117
0.000166706
0.00012067
0.000188049
0.000272718
-3.0867e-05
-4.12281e-05
-2.51348e-05
7.11386e-05
9.17589e-05
0.000157832
0.000175714
0.000210412
0.000223745
0.000162741
0.000171326
0.00017224
0.000179321
0.000173079
0.000182714
0.000173585
0.000199916
0.000179853
0.000239168
0.000132107
-8.80832e-05
-6.91186e-05
-9.18574e-05
-6.22698e-06
9.34587e-06
7.47317e-05
9.62098e-05
0.000133363
0.000148119
0.000168001
0.000173266
0.00017159
0.000172191
0.000157571
0.000148858
0.000120843
0.0001049
7.37263e-05
7.41033e-05
9.73958e-05
-5.63636e-06
3.07105e-05
2.03859e-05
7.89557e-05
7.74251e-05
0.000120077
0.000126052
0.000150516
0.000157935
0.000130641
0.000136902
0.000137926
0.000142725
0.000137222
0.000142754
0.000135893
0.000148008
0.000134462
0.000142454
8.56124e-05
-3.37919e-05
-1.73134e-05
-4.70616e-05
1.15569e-05
1.66518e-05
6.50188e-05
7.89077e-05
0.000107825
0.000118535
0.000128444
0.000131304
0.000129741
0.000129697
0.000118242
0.000111103
9.01681e-05
7.52096e-05
5.28917e-05
3.85509e-05
4.83437e-05
9.58295e-06
5.01869e-05
3.66961e-05
7.82278e-05
6.99273e-05
9.9049e-05
9.97663e-05
0.000117195
0.000121134
0.000109141
0.000112861
0.000113558
0.000116255
0.000110966
0.000113388
0.000107756
0.000111159
0.000103509
9.6046e-05
6.81759e-05
-4.55314e-06
8.11675e-06
-1.7794e-05
2.39371e-05
2.53215e-05
6.12523e-05
7.0481e-05
9.24037e-05
9.94701e-05
0.000105598
0.000106698
0.000105644
0.000105126
9.6249e-05
9.07342e-05
7.55904e-05
6.25322e-05
4.80604e-05
3.17205e-05
3.88039e-05
2.03348e-05
5.54218e-05
4.28241e-05
7.36741e-05
6.50026e-05
8.59038e-05
8.51996e-05
9.80133e-05
9.99803e-05
9.54093e-05
9.6637e-05
9.72109e-05
9.81241e-05
9.29589e-05
9.32777e-05
8.82337e-05
8.64539e-05
8.32525e-05
7.08306e-05
6.00112e-05
1.25771e-05
2.46475e-05
4.38079e-06
3.50837e-05
3.49568e-05
6.11467e-05
6.74507e-05
8.35847e-05
8.77039e-05
9.24071e-05
9.16833e-05
9.14187e-05
9.03473e-05
8.31264e-05
7.90491e-05
6.90771e-05
5.72851e-05
4.98359e-05
3.39192e-05
4.14953e-05
2.79713e-05
5.63836e-05
4.46302e-05
6.87478e-05
6.20671e-05
7.7401e-05
7.71466e-05
8.67629e-05
8.72768e-05
8.70241e-05
8.58039e-05
8.67868e-05
8.63359e-05
8.1051e-05
8.03764e-05
7.57849e-05
7.05497e-05
7.08847e-05
5.68532e-05
5.61643e-05
2.36794e-05
3.70496e-05
2.13116e-05
4.46424e-05
4.4177e-05
6.2509e-05
6.72607e-05
7.8809e-05
8.04464e-05
8.47717e-05
8.20844e-05
8.29186e-05
8.10397e-05
7.48498e-05
7.24678e-05
6.54574e-05
5.4725e-05
5.37004e-05
3.70841e-05
4.73099e-05
3.27336e-05
5.65987e-05
4.56652e-05
6.47888e-05
6.08065e-05
7.19829e-05
7.30143e-05
8.00199e-05
7.93891e-05
8.18549e-05
7.86463e-05
8.06582e-05
7.85849e-05
7.35491e-05
7.26605e-05
6.88698e-05
6.07066e-05
6.4366e-05
4.90233e-05
5.5714e-05
3.12663e-05
4.65729e-05
3.29339e-05
5.19491e-05
5.16764e-05
6.4113e-05
6.84645e-05
7.5984e-05
7.60522e-05
8.0602e-05
7.50868e-05
7.79842e-05
7.51821e-05
6.91021e-05
6.82402e-05
6.32922e-05
5.24926e-05
5.69789e-05
3.91418e-05
5.25542e-05
3.58231e-05
5.75838e-05
4.6363e-05
6.26554e-05
6.10916e-05
6.81646e-05
7.1307e-05
7.61111e-05
7.41506e-05
7.96647e-05
7.3382e-05
7.73913e-05
7.35786e-05
6.80199e-05
6.90361e-05
6.47908e-05
5.44849e-05
6.30326e-05
4.39847e-05
5.8e-05
3.50522e-05
5.37197e-05
4.07469e-05
5.65571e-05
5.78174e-05
6.49134e-05
7.02284e-05
7.42029e-05
7.25035e-05
7.78416e-05
6.97962e-05
7.54851e-05
7.08043e-05
6.48835e-05
6.59542e-05
6.21625e-05
4.9193e-05
5.98729e-05
3.88758e-05
5.7191e-05
3.6905e-05
5.96747e-05
4.6139e-05
6.14052e-05
6.18838e-05
6.55056e-05
7.11615e-05
7.30541e-05
7.0461e-05
7.90783e-05
6.80001e-05
7.6134e-05
7.10502e-05
6.34703e-05
6.69321e-05
6.2861e-05
4.97759e-05
6.39708e-05
4.03208e-05
6.13387e-05
3.65621e-05
5.92e-05
4.45548e-05
5.98093e-05
6.25464e-05
6.37204e-05
7.22122e-05
7.36191e-05
6.92582e-05
7.70026e-05
6.44005e-05
7.44765e-05
6.78144e-05
6.00585e-05
6.5617e-05
6.10225e-05
4.50202e-05
6.33692e-05
3.55634e-05
6.20162e-05
3.50584e-05
6.18353e-05
4.49969e-05
5.99621e-05
6.35058e-05
6.23171e-05
7.18078e-05
7.06698e-05
6.60502e-05
7.89972e-05
6.33279e-05
7.64664e-05
6.82659e-05
5.90038e-05
6.71987e-05
6.15643e-05
4.42641e-05
6.66331e-05
3.57655e-05
6.56636e-05
3.51632e-05
6.41212e-05
4.48375e-05
6.08264e-05
6.58328e-05
6.19109e-05
7.44511e-05
7.18534e-05
6.5731e-05
7.76559e-05
5.72166e-05
7.50304e-05
6.58917e-05
5.31014e-05
6.7021e-05
5.98225e-05
3.85396e-05
6.70542e-05
2.96723e-05
6.66451e-05
3.05542e-05
6.46165e-05
4.13701e-05
5.78219e-05
6.58027e-05
5.69166e-05
7.31048e-05
6.86521e-05
5.9712e-05
7.96341e-05
5.68469e-05
7.82892e-05
6.57434e-05
5.28674e-05
6.95054e-05
6.00508e-05
3.67268e-05
7.12655e-05
2.82701e-05
7.13056e-05
2.96594e-05
6.86363e-05
4.12291e-05
6.02238e-05
6.84094e-05
5.73781e-05
7.71496e-05
6.94206e-05
6.05391e-05
7.84882e-05
4.80192e-05
7.78594e-05
6.26221e-05
4.36691e-05
7.07069e-05
5.80326e-05
2.78982e-05
7.23306e-05
1.93399e-05
7.24327e-05
2.15309e-05
6.82045e-05
3.36622e-05
5.44568e-05
6.74869e-05
4.91187e-05
7.5725e-05
6.46095e-05
5.13208e-05
8.15919e-05
4.72583e-05
8.19801e-05
6.24788e-05
4.24908e-05
7.42137e-05
5.76762e-05
2.58525e-05
7.69006e-05
1.72599e-05
7.73188e-05
1.99855e-05
7.28063e-05
3.25797e-05
5.77527e-05
7.12359e-05
4.89904e-05
8.05533e-05
6.54706e-05
5.15274e-05
8.10248e-05
3.20696e-05
8.47372e-05
5.90086e-05
2.65022e-05
7.92991e-05
5.55061e-05
8.52111e-06
8.15216e-05
8.49449e-07
8.15232e-05
4.30302e-06
7.43645e-05
1.77643e-05
4.84981e-05
7.09315e-05
3.42291e-05
8.12026e-05
5.93386e-05
3.67069e-05
8.36216e-05
3.21629e-05
8.85876e-05
5.67041e-05
2.61642e-05
8.30292e-05
5.30219e-05
7.88348e-06
8.47127e-05
-3.54671e-07
8.46945e-05
3.40695e-06
7.74747e-05
1.69026e-05
5.24263e-05
7.30992e-05
3.44442e-05
8.54478e-05
5.79351e-05
3.74689e-05
8.72212e-05
4.2987e-06
0.000100642
5.06126e-05
-6.50168e-06
9.95064e-05
4.89357e-05
-2.72372e-05
9.79368e-05
-3.22011e-05
9.65414e-05
-2.73107e-05
8.53723e-05
-1.30472e-05
3.84736e-05
7.79154e-05
7.14358e-06
9.38471e-05
4.83569e-05
9.5541e-06
-0.0149496
-0.0143246
-0.0138108
-0.0134356
-0.0132218
-0.0132057
-0.0133949
-0.0137672
-0.0143087
-0.0149764
-0.0157257
-0.0164775
-0.0171394
-0.0176076
-0.017814
-0.017767
-0.0174814
-0.0169858
-0.0163463
-0.015643
0.00141567
0.00152452
0.00149531
0.00138196
0.00123489
0.00111139
0.00093505
0.000702891
0.000392789
2.07139e-05
-0.000418857
-0.000873658
-0.00125305
-0.00146171
-0.0014089
-0.00105283
-0.000506963
0.000109749
0.000686404
0.0011371
-0.00310463
-0.0027485
-0.00250901
-0.00237055
-0.00238092
-0.00252204
-0.00276668