/*--------------------------------*- C++ -*----------------------------------*\
| =========                 |                                                 |
| \\      /  F ield         | OpenFOAM: The Open Source CFD Toolbox           |
|  \\    /   O peration     | Version:  2.4.0                                 |
|   \\  /    A nd           | Web:      www.OpenFOAM.org                      |
|    \\/     M anipulation  |                                                 |
\*---------------------------------------------------------------------------*/
FoamFile
{
    version     2.0;
    format      ascii;
    class       volScalarField;
    location    "110";
    object      epsilon;
}
// * * * * * * * * * * * * * * * * * * * * * * * * * * * * * * * * * * * * * //

dimensions      [0 2 -3 0 0 0 0];

internalField   nonuniform List<scalar> 
283312
(
2.51576e-05
2.35987e-05
2.33901e-05
2.45594e-05
2.67736e-05
2.95384e-05
3.23544e-05
3.48978e-05
3.70544e-05
3.87877e-05
4.00347e-05
4.07028e-05
4.07289e-05
4.01309e-05
3.89771e-05
3.73195e-05
3.51916e-05
3.26196e-05
2.97053e-05
2.67516e-05
2.18886e-05
2.5444e-05
2.98144e-05
3.39621e-05
3.71879e-05
3.93309e-05
4.06238e-05
4.13865e-05
4.18164e-05
4.19166e-05
4.15061e-05
4.04016e-05
3.85743e-05
3.61075e-05
3.30908e-05
2.95318e-05
2.57087e-05
2.22667e-05
2.00306e-05
1.97016e-05
3.04625e-05
3.39165e-05
3.63334e-05
3.78586e-05
3.8755e-05
3.92235e-05
3.9444e-05
3.95499e-05
3.95921e-05
3.93545e-05
3.83102e-05
3.60871e-05
3.27325e-05
2.86113e-05
2.42621e-05
2.05333e-05
1.85415e-05
1.89836e-05
2.17687e-05
2.59531e-05
3.39791e-05
3.56376e-05
3.65686e-05
3.70253e-05
3.72167e-05
3.73099e-05
3.74136e-05
3.75565e-05
3.77334e-05
3.74271e-05
3.55899e-05
3.182e-05
2.67524e-05
2.16191e-05
1.77916e-05
1.66725e-05
1.85787e-05
2.26196e-05
2.72222e-05
3.11268e-05
3.52251e-05
3.58903e-05
3.61642e-05
3.62735e-05
3.63462e-05
3.64236e-05
3.65409e-05
3.67032e-05
3.70206e-05
3.64269e-05
3.33818e-05
2.80185e-05
2.18941e-05
1.69502e-05
1.49776e-05
1.67859e-05
2.13553e-05
2.66175e-05
3.08982e-05
3.36558e-05
3.5424e-05
3.56339e-05
3.56905e-05
3.57068e-05
3.57416e-05
3.58072e-05
3.59275e-05
3.60997e-05
3.64654e-05
3.52445e-05
3.11287e-05
2.49609e-05
1.86838e-05
1.49134e-05
1.52535e-05
1.92101e-05
2.47662e-05
2.9727e-05
3.29951e-05
3.46753e-05
3.53316e-05
3.53536e-05
3.53523e-05
3.53701e-05
3.54205e-05
3.54932e-05
3.5608e-05
3.5771e-05
3.61324e-05
3.45033e-05
3.02048e-05
2.45589e-05
1.91112e-05
1.6206e-05
1.76624e-05
2.24144e-05
2.78534e-05
3.1938e-05
3.41533e-05
3.50394e-05
3.51833e-05
3.51609e-05
3.51539e-05
3.51663e-05
3.52032e-05
3.52626e-05
3.53574e-05
3.55014e-05
3.57826e-05
3.40454e-05
3.02906e-05
2.48499e-05
1.97838e-05
1.79301e-05
2.05398e-05
2.56683e-05
3.0468e-05
3.34381e-05
3.47246e-05
3.51028e-05
3.50292e-05
3.50189e-05
3.50253e-05
3.5047e-05
3.50833e-05
3.51368e-05
3.52125e-05
3.53385e-05
3.55422e-05
3.39024e-05
3.08623e-05
2.58832e-05
2.16575e-05
2.12585e-05
2.47338e-05
2.9325e-05
3.26889e-05
3.43389e-05
3.48975e-05
3.50155e-05
3.49423e-05
3.49441e-05
3.49527e-05
3.49696e-05
3.4996e-05
3.50378e-05
3.50965e-05
3.52046e-05
3.53721e-05
3.36578e-05
3.10859e-05
2.6813e-05
2.40542e-05
2.51645e-05
2.869e-05
3.19732e-05
3.38744e-05
3.4652e-05
3.48852e-05
3.4934e-05
3.48922e-05
3.48984e-05
3.49084e-05
3.49242e-05
3.49459e-05
3.49793e-05
3.50235e-05
3.51113e-05
3.524e-05
3.34205e-05
3.10386e-05
2.68877e-05
2.53942e-05
2.75765e-05
3.07829e-05
3.30876e-05
3.42464e-05
3.46996e-05
3.48439e-05
3.48819e-05
3.48665e-05
3.48721e-05
3.48797e-05
3.48915e-05
3.49075e-05
3.49325e-05
3.4967e-05
3.50364e-05
3.51511e-05
3.32577e-05
3.15485e-05
2.8044e-05
2.70801e-05
2.92511e-05
3.18613e-05
3.35654e-05
3.43923e-05
3.47191e-05
3.48273e-05
3.48577e-05
3.48495e-05
3.48547e-05
3.48613e-05
3.4871e-05
3.48836e-05
3.49022e-05
3.4928e-05
3.4978e-05
3.50707e-05
3.32969e-05
3.11161e-05
2.70812e-05
2.68141e-05
2.94697e-05
3.20807e-05
3.36686e-05
3.44195e-05
3.47147e-05
3.48129e-05
3.48411e-05
3.48381e-05
3.48424e-05
3.48476e-05
3.48549e-05
3.48644e-05
3.48779e-05
3.48973e-05
3.49326e-05
3.50421e-05
3.36707e-05
3.24898e-05
2.87823e-05
2.81192e-05
3.02065e-05
3.24062e-05
3.37836e-05
3.44489e-05
3.47146e-05
3.48043e-05
3.48304e-05
3.48302e-05
3.48337e-05
3.48378e-05
3.48436e-05
3.48511e-05
3.48611e-05
3.48756e-05
3.48996e-05
3.49943e-05
3.3257e-05
3.06378e-05
2.71373e-05
2.76256e-05
3.02399e-05
3.25143e-05
3.38501e-05
3.44751e-05
3.47195e-05
3.48006e-05
3.48237e-05
3.48241e-05
3.48264e-05
3.48295e-05
3.4834e-05
3.48397e-05
3.48471e-05
3.48556e-05
3.48676e-05
3.48757e-05
3.16523e-05
2.59331e-05
2.37653e-05
2.60921e-05
2.97578e-05
3.2489e-05
3.39206e-05
3.45235e-05
3.47376e-05
3.48028e-05
3.48197e-05
3.482e-05
3.48207e-05
3.48228e-05
3.48263e-05
3.4831e-05
3.4837e-05
3.48438e-05
3.48523e-05
3.48573e-05
3.4571e-05
3.43544e-05
3.44181e-05
3.45908e-05
3.47051e-05
3.47506e-05
3.479e-05
3.48137e-05
3.48218e-05
3.48221e-05
3.48207e-05
3.48148e-05
3.48151e-05
3.48166e-05
3.48194e-05
3.48231e-05
3.4828e-05
3.48332e-05
3.48397e-05
3.48464e-05
3.48427e-05
3.48368e-05
3.48367e-05
3.48421e-05
3.4844e-05
3.48409e-05
3.48348e-05
3.48284e-05
3.48228e-05
3.48186e-05
3.48159e-05
3.48103e-05
3.48102e-05
3.48112e-05
3.48134e-05
3.48165e-05
3.48205e-05
3.48247e-05
3.48295e-05
3.48331e-05
3.48363e-05
3.48351e-05
3.48347e-05
3.48371e-05
3.48367e-05
3.48339e-05
3.48288e-05
3.48233e-05
3.48182e-05
3.48143e-05
3.48116e-05
3.48058e-05
3.48055e-05
3.48062e-05
3.48079e-05
3.48104e-05
3.48138e-05
3.48174e-05
3.48217e-05
3.48253e-05
3.48281e-05
3.48278e-05
3.48272e-05
3.48279e-05
3.48274e-05
3.48253e-05
3.48214e-05
3.4817e-05
3.48129e-05
3.48095e-05
3.48071e-05
3.48017e-05
3.48013e-05
3.48017e-05
3.4803e-05
3.4805e-05
3.48078e-05
3.48108e-05
3.48143e-05
3.4817e-05
3.48196e-05
3.48199e-05
3.48203e-05
3.48214e-05
3.4821e-05
3.48192e-05
3.4816e-05
3.48122e-05
3.48085e-05
3.48054e-05
3.48031e-05
3.47978e-05
3.47973e-05
3.47975e-05
3.47985e-05
3.48001e-05
3.48025e-05
3.48051e-05
3.48082e-05
3.48109e-05
3.48133e-05
3.4814e-05
3.48142e-05
3.48147e-05
3.48143e-05
3.48128e-05
3.48102e-05
3.48071e-05
3.4804e-05
3.48013e-05
3.47992e-05
3.47943e-05
3.47936e-05
3.47936e-05
3.47943e-05
3.47957e-05
3.47976e-05
3.47999e-05
3.48026e-05
3.48048e-05
3.48069e-05
3.48079e-05
3.48086e-05
3.48094e-05
3.48091e-05
3.48079e-05
3.48056e-05
3.48029e-05
3.48001e-05
3.47976e-05
3.47956e-05
3.47909e-05
3.47902e-05
3.479e-05
3.47906e-05
3.47916e-05
3.47933e-05
3.47953e-05
3.47977e-05
3.47998e-05
3.48018e-05
3.48028e-05
3.48035e-05
3.4804e-05
3.48038e-05
3.48028e-05
3.48009e-05
3.47987e-05
3.47963e-05
3.4794e-05
3.47922e-05
3.47878e-05
3.4787e-05
3.47868e-05
3.47871e-05
3.4788e-05
3.47894e-05
3.47911e-05
3.47932e-05
3.4795e-05
3.47969e-05
3.4798e-05
3.47989e-05
3.47995e-05
3.47994e-05
3.47986e-05
3.4797e-05
3.4795e-05
3.47928e-05
3.47908e-05
3.47891e-05
3.47849e-05
3.47841e-05
3.47838e-05
3.4784e-05
3.47847e-05
3.47859e-05
3.47874e-05
3.47893e-05
3.4791e-05
3.47927e-05
3.47938e-05
3.47947e-05
3.47952e-05
3.47952e-05
3.47945e-05
3.47932e-05
3.47914e-05
3.47896e-05
3.47877e-05
3.47862e-05
3.47823e-05
3.47815e-05
3.47811e-05
3.47812e-05
3.47818e-05
3.47828e-05
3.47841e-05
3.47857e-05
3.47872e-05
3.47888e-05
3.479e-05
3.47909e-05
3.47915e-05
3.47915e-05
3.4791e-05
3.47898e-05
3.47883e-05
3.47866e-05
3.4785e-05
3.47835e-05
3.47799e-05
3.47791e-05
3.47787e-05
3.47787e-05
3.47791e-05
3.478e-05
3.47811e-05
3.47826e-05
3.4784e-05
3.47855e-05
3.47866e-05
3.47875e-05
3.4788e-05
3.47881e-05
3.47877e-05
3.47867e-05
3.47854e-05
3.4784e-05
3.47824e-05
3.47811e-05
3.47778e-05
3.4777e-05
3.47765e-05
3.47764e-05
3.47767e-05
3.47775e-05
3.47784e-05
3.47798e-05
3.47811e-05
3.47824e-05
3.47835e-05
3.47844e-05
3.4785e-05
3.47851e-05
3.47848e-05
3.4784e-05
3.47829e-05
3.47815e-05
3.47801e-05
3.47788e-05
3.47758e-05
3.4775e-05
3.47745e-05
3.47744e-05
3.47746e-05
3.47752e-05
3.47761e-05
3.47773e-05
3.47785e-05
3.47798e-05
3.47808e-05
3.47817e-05
3.47823e-05
3.47825e-05
3.47822e-05
3.47816e-05
3.47805e-05
3.47793e-05
3.47781e-05
3.47769e-05
3.47741e-05
3.47733e-05
3.47728e-05
3.47726e-05
3.47727e-05
3.47733e-05
3.4774e-05
3.47751e-05
3.47762e-05
3.47774e-05
3.47784e-05
3.47793e-05
3.47799e-05
3.47801e-05
3.478e-05
3.47794e-05
3.47785e-05
3.47774e-05
3.47762e-05
3.47751e-05
3.47726e-05
3.47718e-05
3.47713e-05
3.4771e-05
3.47711e-05
3.47716e-05
3.47722e-05
3.47732e-05
3.47742e-05
3.47754e-05
3.47764e-05
3.47772e-05
3.47778e-05
3.47781e-05
3.4778e-05
3.47775e-05
3.47767e-05
3.47757e-05
3.47746e-05
3.47735e-05
3.47712e-05
3.47705e-05
3.47699e-05
3.47696e-05
3.47697e-05
3.47701e-05
3.47706e-05
3.47716e-05
3.47725e-05
3.47736e-05
3.47745e-05
3.47754e-05
3.4776e-05
3.47763e-05
3.47762e-05
3.47758e-05
3.47751e-05
3.47742e-05
3.47731e-05
3.47721e-05
3.47701e-05
3.47693e-05
3.47688e-05
3.47685e-05
3.47685e-05
3.47688e-05
3.47693e-05
3.47702e-05
3.47711e-05
3.47721e-05
3.4773e-05
3.47738e-05
3.47744e-05
3.47747e-05
3.47747e-05
3.47744e-05
3.47737e-05
3.47729e-05
3.47719e-05
3.4771e-05
3.47691e-05
3.47683e-05
3.47678e-05
3.47675e-05
3.47674e-05
3.47677e-05
3.47682e-05
3.4769e-05
3.47698e-05
3.47708e-05
3.47717e-05
3.47725e-05
3.47731e-05
3.47734e-05
3.47735e-05
3.47731e-05
3.47726e-05
3.47718e-05
3.47708e-05
3.477e-05
3.47683e-05
3.47676e-05
3.47671e-05
3.47667e-05
3.47666e-05
3.47669e-05
3.47672e-05
3.4768e-05
3.47688e-05
3.47698e-05
3.47706e-05
3.47715e-05
3.4772e-05
3.47724e-05
3.47725e-05
3.47722e-05
3.47717e-05
3.47709e-05
3.477e-05
3.47692e-05
3.47676e-05
3.47669e-05
3.47664e-05
3.4766e-05
3.47659e-05
3.47661e-05
3.47665e-05
3.47672e-05
3.4768e-05
3.47689e-05
3.47697e-05
3.47705e-05
3.47711e-05
3.47715e-05
3.47716e-05
3.47713e-05
3.47709e-05
3.47702e-05
3.47693e-05
3.47685e-05
3.47673e-05
3.47665e-05
3.4766e-05
3.47655e-05
3.47654e-05
3.47656e-05
3.47659e-05
3.47666e-05
3.47674e-05
3.47683e-05
3.47692e-05
3.477e-05
3.47705e-05
3.47709e-05
3.47711e-05
3.47708e-05
3.47704e-05
3.47697e-05
3.47689e-05
3.47681e-05
3.4767e-05
3.47663e-05
3.47657e-05
3.47653e-05
3.47652e-05
3.47654e-05
3.47656e-05
3.47663e-05
3.47671e-05
3.4768e-05
3.47688e-05
3.47696e-05
3.47702e-05
3.47706e-05
3.47707e-05
3.47705e-05
3.47701e-05
3.47694e-05
3.47686e-05
3.47678e-05
3.47992e-05
3.48047e-05
3.47973e-05
3.47958e-05
3.48042e-05
3.47976e-05
3.47965e-05
3.48077e-05
3.48001e-05
3.48111e-05
3.48021e-05
3.48137e-05
3.48038e-05
3.48146e-05
3.48171e-05
3.4804e-05
3.4812e-05
3.4802e-05
3.47994e-05
3.48073e-05
2.45543e-05
2.31321e-05
2.32405e-05
2.48104e-05
2.74084e-05
3.04819e-05
3.34995e-05
3.61721e-05
3.84119e-05
4.01888e-05
4.14337e-05
4.20479e-05
4.19687e-05
4.12208e-05
3.98818e-05
3.7991e-05
3.55765e-05
3.26731e-05
2.94284e-05
2.62282e-05
2.27413e-05
2.67015e-05
3.12968e-05
3.54803e-05
3.8633e-05
4.06821e-05
4.19186e-05
4.26572e-05
4.30773e-05
4.31615e-05
4.2703e-05
4.15022e-05
3.95287e-05
3.68673e-05
3.36038e-05
2.97712e-05
2.5722e-05
2.22037e-05
2.01079e-05
2.01246e-05
3.18555e-05
3.52994e-05
3.76631e-05
3.91368e-05
3.9994e-05
4.04339e-05
4.06423e-05
4.07485e-05
4.08035e-05
4.05739e-05
3.94832e-05
3.71249e-05
3.35515e-05
2.91685e-05
2.45843e-05
2.07701e-05
1.8912e-05
1.96731e-05
2.28263e-05
2.72727e-05
3.52928e-05
3.69121e-05
3.78042e-05
3.82303e-05
3.84054e-05
3.84975e-05
3.86066e-05
3.87584e-05
3.89467e-05
3.86381e-05
3.67178e-05
3.27516e-05
2.74284e-05
2.20982e-05
1.82554e-05
1.73307e-05
1.95397e-05
2.38399e-05
2.85701e-05
3.24905e-05
3.64533e-05
3.70902e-05
3.7348e-05
3.74509e-05
3.75245e-05
3.76049e-05
3.77287e-05
3.78989e-05
3.82373e-05
3.76694e-05
3.45469e-05
2.89683e-05
2.25971e-05
1.75449e-05
1.57158e-05
1.78139e-05
2.26272e-05
2.79831e-05
3.22444e-05
3.49461e-05
3.66029e-05
3.68034e-05
3.68585e-05
3.68765e-05
3.69161e-05
3.69864e-05
3.7113e-05
3.72917e-05
3.76694e-05
3.64318e-05
3.221e-05
2.58464e-05
1.937e-05
1.56388e-05
1.62286e-05
2.0462e-05
2.61545e-05
3.10968e-05
3.42848e-05
3.58981e-05
3.64877e-05
3.65146e-05
3.65194e-05
3.65417e-05
3.65959e-05
3.66716e-05
3.6791e-05
3.69592e-05
3.73284e-05
3.56606e-05
3.13048e-05
2.57157e-05
2.02824e-05
1.73763e-05
1.89709e-05
2.38559e-05
2.92889e-05
3.32664e-05
3.53798e-05
3.6215e-05
3.63373e-05
3.63231e-05
3.63213e-05
3.63372e-05
3.63771e-05
3.64393e-05
3.65377e-05
3.66866e-05
3.69744e-05
3.51439e-05
3.13189e-05
2.5861e-05
2.08645e-05
1.9152e-05
2.19495e-05
2.71444e-05
3.18541e-05
3.46937e-05
3.59029e-05
3.62589e-05
3.61913e-05
3.61858e-05
3.61951e-05
3.62188e-05
3.62568e-05
3.63123e-05
3.63904e-05
3.65208e-05
3.67319e-05
3.50352e-05
3.19662e-05
2.68775e-05
2.27035e-05
2.25266e-05
2.61638e-05
3.07318e-05
3.39769e-05
3.55354e-05
3.606e-05
3.61748e-05
3.61091e-05
3.61126e-05
3.61226e-05
3.61408e-05
3.61685e-05
3.62121e-05
3.62726e-05
3.63845e-05
3.65576e-05
3.48056e-05
3.22762e-05
2.78946e-05
2.51686e-05
2.64541e-05
3.00497e-05
3.32737e-05
3.50959e-05
3.58314e-05
3.60522e-05
3.60999e-05
3.60609e-05
3.60678e-05
3.60785e-05
3.60952e-05
3.61178e-05
3.61526e-05
3.6198e-05
3.62889e-05
3.64213e-05
3.45771e-05
3.22693e-05
2.79954e-05
2.65531e-05
2.88625e-05
3.20886e-05
3.43424e-05
3.54532e-05
3.58812e-05
3.60159e-05
3.6051e-05
3.60354e-05
3.60413e-05
3.60495e-05
3.6062e-05
3.60787e-05
3.61049e-05
3.61404e-05
3.62122e-05
3.63303e-05
3.44223e-05
3.28864e-05
2.92746e-05
2.8314e-05
3.0549e-05
3.31487e-05
3.48062e-05
3.55948e-05
3.59006e-05
3.59998e-05
3.60272e-05
3.60185e-05
3.60239e-05
3.60309e-05
3.60412e-05
3.60543e-05
3.60737e-05
3.61004e-05
3.6152e-05
3.62477e-05
3.44796e-05
3.2424e-05
2.82574e-05
2.80352e-05
3.07567e-05
3.33564e-05
3.49026e-05
3.56192e-05
3.58954e-05
3.59854e-05
3.60107e-05
3.6007e-05
3.60114e-05
3.60169e-05
3.60247e-05
3.60347e-05
3.60488e-05
3.60689e-05
3.61053e-05
3.62193e-05
3.48964e-05
3.39311e-05
3.00663e-05
2.93835e-05
3.14995e-05
3.36773e-05
3.50134e-05
3.56464e-05
3.58944e-05
3.59764e-05
3.59999e-05
3.5999e-05
3.60025e-05
3.60069e-05
3.60131e-05
3.60209e-05
3.60314e-05
3.60464e-05
3.60712e-05
3.61702e-05
3.44522e-05
3.19237e-05
2.83232e-05
2.88683e-05
3.15258e-05
3.37795e-05
3.50756e-05
3.56703e-05
3.58984e-05
3.59724e-05
3.59931e-05
3.59926e-05
3.5995e-05
3.59983e-05
3.60032e-05
3.60092e-05
3.60169e-05
3.60259e-05
3.60383e-05
3.60462e-05
3.2664e-05
2.67394e-05
2.46699e-05
2.72281e-05
3.10139e-05
3.3745e-05
3.51403e-05
3.57147e-05
3.59144e-05
3.59736e-05
3.59887e-05
3.59882e-05
3.59891e-05
3.59914e-05
3.59953e-05
3.60002e-05
3.60065e-05
3.60135e-05
3.60224e-05
3.60273e-05
3.57305e-05
3.55168e-05
3.55913e-05
3.57682e-05
3.58798e-05
3.59241e-05
3.59621e-05
3.59839e-05
3.59906e-05
3.59904e-05
3.59889e-05
3.59829e-05
3.59834e-05
3.59851e-05
3.59881e-05
3.59921e-05
3.59971e-05
3.60026e-05
3.60093e-05
3.60162e-05
3.60122e-05
3.60062e-05
3.60062e-05
3.60117e-05
3.60133e-05
3.60097e-05
3.60032e-05
3.59966e-05
3.59909e-05
3.59866e-05
3.5984e-05
3.59783e-05
3.59783e-05
3.59795e-05
3.59819e-05
3.59851e-05
3.59893e-05
3.59937e-05
3.59987e-05
3.60024e-05
3.60056e-05
3.60041e-05
3.60038e-05
3.60062e-05
3.60056e-05
3.60025e-05
3.59972e-05
3.59914e-05
3.59862e-05
3.59821e-05
3.59795e-05
3.59737e-05
3.59735e-05
3.59743e-05
3.59762e-05
3.59789e-05
3.59824e-05
3.59862e-05
3.59906e-05
3.59942e-05
3.59971e-05
3.59966e-05
3.59959e-05
3.59966e-05
3.5996e-05
3.59937e-05
3.59896e-05
3.5985e-05
3.59807e-05
3.59773e-05
3.59749e-05
3.59695e-05
3.59691e-05
3.59696e-05
3.59711e-05
3.59732e-05
3.59762e-05
3.59793e-05
3.59829e-05
3.59857e-05
3.59882e-05
3.59885e-05
3.59889e-05
3.599e-05
3.59895e-05
3.59875e-05
3.5984e-05
3.59801e-05
3.59763e-05
3.59731e-05
3.59708e-05
3.59655e-05
3.5965e-05
3.59653e-05
3.59664e-05
3.59682e-05
3.59707e-05
3.59734e-05
3.59766e-05
3.59793e-05
3.59818e-05
3.59824e-05
3.59826e-05
3.59831e-05
3.59825e-05
3.59809e-05
3.59781e-05
3.59749e-05
3.59717e-05
3.59689e-05
3.59668e-05
3.59618e-05
3.59612e-05
3.59613e-05
3.59621e-05
3.59635e-05
3.59656e-05
3.5968e-05
3.59707e-05
3.5973e-05
3.59752e-05
3.59761e-05
3.59768e-05
3.59775e-05
3.59772e-05
3.59758e-05
3.59734e-05
3.59706e-05
3.59677e-05
3.59652e-05
3.59632e-05
3.59583e-05
3.59576e-05
3.59576e-05
3.59582e-05
3.59594e-05
3.59612e-05
3.59632e-05
3.59657e-05
3.59678e-05
3.59699e-05
3.59709e-05
3.59716e-05
3.5972e-05
3.59717e-05
3.59706e-05
3.59686e-05
3.59662e-05
3.59638e-05
3.59615e-05
3.59596e-05
3.59552e-05
3.59544e-05
3.59542e-05
3.59546e-05
3.59556e-05
3.59571e-05
3.59589e-05
3.5961e-05
3.59629e-05
3.59648e-05
3.59659e-05
3.59668e-05
3.59674e-05
3.59672e-05
3.59662e-05
3.59646e-05
3.59625e-05
3.59602e-05
3.59582e-05
3.59564e-05
3.59522e-05
3.59514e-05
3.59512e-05
3.59514e-05
3.59522e-05
3.59535e-05
3.5955e-05
3.59569e-05
3.59587e-05
3.59605e-05
3.59615e-05
3.59624e-05
3.59629e-05
3.59628e-05
3.5962e-05
3.59606e-05
3.59588e-05
3.59569e-05
3.5955e-05
3.59534e-05
3.59495e-05
3.59487e-05
3.59484e-05
3.59485e-05
3.59491e-05
3.59502e-05
3.59515e-05
3.59532e-05
3.59548e-05
3.59565e-05
3.59576e-05
3.59585e-05
3.59591e-05
3.59591e-05
3.59584e-05
3.59572e-05
3.59557e-05
3.59539e-05
3.59522e-05
3.59507e-05
3.5947e-05
3.59463e-05
3.59459e-05
3.59459e-05
3.59464e-05
3.59473e-05
3.59485e-05
3.595e-05
3.59514e-05
3.5953e-05
3.59541e-05
3.5955e-05
3.59555e-05
3.59555e-05
3.59551e-05
3.59541e-05
3.59527e-05
3.59511e-05
3.59496e-05
3.59482e-05
3.59448e-05
3.5944e-05
3.59436e-05
3.59435e-05
3.59439e-05
3.59447e-05
3.59457e-05
3.59471e-05
3.59484e-05
3.59498e-05
3.59509e-05
3.59518e-05
3.59524e-05
3.59525e-05
3.59521e-05
3.59512e-05
3.595e-05
3.59486e-05
3.59472e-05
3.59459e-05
3.59428e-05
3.5942e-05
3.59416e-05
3.59415e-05
3.59417e-05
3.59424e-05
3.59433e-05
3.59445e-05
3.59458e-05
3.59471e-05
3.59481e-05
3.5949e-05
3.59496e-05
3.59497e-05
3.59495e-05
3.59487e-05
3.59477e-05
3.59464e-05
3.59451e-05
3.59439e-05
3.5941e-05
3.59403e-05
3.59398e-05
3.59396e-05
3.59398e-05
3.59403e-05
3.59411e-05
3.59423e-05
3.59434e-05
3.59446e-05
3.59456e-05
3.59465e-05
3.59471e-05
3.59473e-05
3.59471e-05
3.59465e-05
3.59455e-05
3.59444e-05
3.59432e-05
3.5942e-05
3.59395e-05
3.59387e-05
3.59382e-05
3.5938e-05
3.59381e-05
3.59386e-05
3.59393e-05
3.59403e-05
3.59414e-05
3.59426e-05
3.59435e-05
3.59444e-05
3.59449e-05
3.59452e-05
3.59451e-05
3.59445e-05
3.59437e-05
3.59427e-05
3.59415e-05
3.59405e-05
3.59381e-05
3.59373e-05
3.59368e-05
3.59365e-05
3.59366e-05
3.5937e-05
3.59376e-05
3.59386e-05
3.59396e-05
3.59407e-05
3.59416e-05
3.59425e-05
3.5943e-05
3.59433e-05
3.59432e-05
3.59428e-05
3.5942e-05
3.59411e-05
3.594e-05
3.5939e-05
3.59369e-05
3.59362e-05
3.59356e-05
3.59353e-05
3.59354e-05
3.59357e-05
3.59363e-05
3.59372e-05
3.59381e-05
3.59392e-05
3.594e-05
3.59409e-05
3.59415e-05
3.59418e-05
3.59417e-05
3.59413e-05
3.59407e-05
3.59398e-05
3.59388e-05
3.59378e-05
3.59359e-05
3.59352e-05
3.59346e-05
3.59343e-05
3.59343e-05
3.59346e-05
3.59351e-05
3.59359e-05
3.59368e-05
3.59378e-05
3.59387e-05
3.59395e-05
3.59401e-05
3.59404e-05
3.59404e-05
3.59401e-05
3.59395e-05
3.59386e-05
3.59377e-05
3.59368e-05
3.59351e-05
3.59344e-05
3.59338e-05
3.59335e-05
3.59334e-05
3.59337e-05
3.59341e-05
3.59349e-05
3.59357e-05
3.59368e-05
3.59376e-05
3.59384e-05
3.5939e-05
3.59394e-05
3.59394e-05
3.59391e-05
3.59386e-05
3.59378e-05
3.59369e-05
3.5936e-05
3.59344e-05
3.59337e-05
3.59331e-05
3.59327e-05
3.59327e-05
3.59329e-05
3.59333e-05
3.59341e-05
3.59349e-05
3.59358e-05
3.59367e-05
3.59375e-05
3.59381e-05
3.59384e-05
3.59385e-05
3.59382e-05
3.59377e-05
3.5937e-05
3.59361e-05
3.59353e-05
3.5934e-05
3.59333e-05
3.59327e-05
3.59323e-05
3.59322e-05
3.59324e-05
3.59327e-05
3.59335e-05
3.59343e-05
3.59353e-05
3.59361e-05
3.59369e-05
3.59375e-05
3.59379e-05
3.5938e-05
3.59377e-05
3.59372e-05
3.59365e-05
3.59356e-05
3.59349e-05
3.59337e-05
3.5933e-05
3.59324e-05
3.5932e-05
3.59319e-05
3.59321e-05
3.59324e-05
3.59332e-05
3.59339e-05
3.59349e-05
3.59357e-05
3.59365e-05
3.59371e-05
3.59375e-05
3.59376e-05
3.59373e-05
3.59369e-05
3.59362e-05
3.59353e-05
3.59346e-05
3.59657e-05
3.59708e-05
3.59638e-05
3.59625e-05
3.59704e-05
3.59642e-05
3.59632e-05
3.5974e-05
3.59667e-05
3.59773e-05
3.59688e-05
3.59799e-05
3.59704e-05
3.59808e-05
3.5983e-05
3.59704e-05
3.59781e-05
3.59685e-05
3.59661e-05
3.59735e-05
2.396e-05
2.27435e-05
2.32229e-05
2.52187e-05
2.82018e-05
3.15629e-05
3.47647e-05
3.75541e-05
3.98658e-05
4.16741e-05
4.29037e-05
4.34492e-05
4.32485e-05
4.2333e-05
4.07852e-05
3.86352e-05
3.59075e-05
3.26545e-05
2.90821e-05
2.56678e-05
2.37605e-05
2.81077e-05
3.28889e-05
3.70757e-05
4.01412e-05
4.21006e-05
4.32834e-05
4.39973e-05
4.44059e-05
4.44723e-05
4.39626e-05
4.26587e-05
4.05271e-05
3.76535e-05
3.41252e-05
3.0006e-05
2.57408e-05
2.21842e-05
2.02834e-05
2.06953e-05
3.33347e-05
3.67525e-05
3.90567e-05
4.0476e-05
4.12915e-05
4.17027e-05
4.18996e-05
4.20072e-05
4.2079e-05
4.18671e-05
4.07392e-05
3.82461e-05
3.44435e-05
2.97836e-05
2.49563e-05
2.10745e-05
1.93839e-05
2.04929e-05
2.40176e-05
2.87041e-05
3.66781e-05
3.82499e-05
3.90988e-05
3.9493e-05
3.96526e-05
3.9744e-05
3.98593e-05
4.00207e-05
4.02222e-05
3.99233e-05
3.79321e-05
3.37683e-05
2.81793e-05
2.26488e-05
1.88087e-05
1.81023e-05
2.06272e-05
2.51792e-05
3.00177e-05
3.39364e-05
3.77462e-05
3.83498e-05
3.85902e-05
3.86866e-05
3.87614e-05
3.88452e-05
3.89759e-05
3.91545e-05
3.95177e-05
3.90043e-05
3.58336e-05
3.0046e-05
2.34196e-05
1.82575e-05
1.65828e-05
1.89776e-05
2.40254e-05
2.94546e-05
3.36769e-05
3.63084e-05
3.78444e-05
3.80329e-05
3.80859e-05
3.81055e-05
3.81499e-05
3.82249e-05
3.8358e-05
3.85434e-05
3.89355e-05
3.77069e-05
3.34093e-05
2.68611e-05
2.01767e-05
1.64928e-05
1.73436e-05
2.18506e-05
2.76594e-05
3.25595e-05
3.56503e-05
3.7187e-05
3.77061e-05
3.7736e-05
3.77459e-05
3.77723e-05
3.78301e-05
3.7909e-05
3.80331e-05
3.82067e-05
3.85856e-05
3.69043e-05
3.25368e-05
2.70892e-05
2.16947e-05
1.87518e-05
2.04521e-05
2.54366e-05
3.08294e-05
3.46758e-05
3.66756e-05
3.74547e-05
3.75529e-05
3.75451e-05
3.75479e-05
3.7567e-05
3.76098e-05
3.76749e-05
3.7777e-05
3.7931e-05
3.82264e-05
3.6306e-05
3.24338e-05
2.701e-05
2.21175e-05
2.05461e-05
2.35102e-05
2.87374e-05
3.33275e-05
3.60216e-05
3.71475e-05
3.74782e-05
3.74131e-05
3.74118e-05
3.74237e-05
3.74493e-05
3.74891e-05
3.75466e-05
3.76271e-05
3.77621e-05
3.79811e-05
3.6233e-05
3.31515e-05
2.79631e-05
2.38651e-05
2.39219e-05
2.77053e-05
3.22254e-05
3.53365e-05
3.67978e-05
3.72855e-05
3.7395e-05
3.73348e-05
3.73398e-05
3.73511e-05
3.73706e-05
3.73997e-05
3.74451e-05
3.75075e-05
3.76234e-05
3.78023e-05
3.60218e-05
3.35576e-05
2.90628e-05
2.6376e-05
2.78392e-05
3.14918e-05
3.4644e-05
3.63814e-05
3.70723e-05
3.72792e-05
3.7325e-05
3.72881e-05
3.72955e-05
3.7307e-05
3.73248e-05
3.73483e-05
3.73844e-05
3.74312e-05
3.75254e-05
3.76616e-05
3.58045e-05
3.35956e-05
2.91888e-05
2.77981e-05
3.02302e-05
3.34646e-05
3.566e-05
3.67197e-05
3.71216e-05
3.72462e-05
3.72786e-05
3.72626e-05
3.72689e-05
3.72777e-05
3.7291e-05
3.73086e-05
3.73358e-05
3.73725e-05
3.74467e-05
3.75684e-05
3.56598e-05
3.43335e-05
3.05987e-05
2.9633e-05
3.19229e-05
3.45017e-05
3.6107e-05
3.68554e-05
3.71399e-05
3.72303e-05
3.72549e-05
3.72458e-05
3.72514e-05
3.7259e-05
3.72698e-05
3.72836e-05
3.73038e-05
3.73314e-05
3.73847e-05
3.74834e-05
3.57377e-05
3.38372e-05
2.95227e-05
2.93388e-05
3.21172e-05
3.46962e-05
3.61958e-05
3.68767e-05
3.71338e-05
3.72158e-05
3.72385e-05
3.72342e-05
3.72388e-05
3.72447e-05
3.7253e-05
3.72635e-05
3.72783e-05
3.72991e-05
3.73366e-05
3.74552e-05
3.62027e-05
3.54912e-05
3.14454e-05
3.07309e-05
3.28651e-05
3.50119e-05
3.63021e-05
3.69017e-05
3.71321e-05
3.72066e-05
3.72276e-05
3.72261e-05
3.72297e-05
3.72344e-05
3.7241e-05
3.72493e-05
3.72602e-05
3.72758e-05
3.73013e-05
3.74047e-05
3.57253e-05
3.33129e-05
2.95976e-05
3.01923e-05
3.28832e-05
3.51076e-05
3.636e-05
3.69233e-05
3.7135e-05
3.72023e-05
3.72207e-05
3.72195e-05
3.72221e-05
3.72256e-05
3.72308e-05
3.72372e-05
3.72453e-05
3.72545e-05
3.72674e-05
3.7275e-05
3.37306e-05
2.75969e-05
2.56403e-05
2.84388e-05
3.23394e-05
3.50627e-05
3.64183e-05
3.69637e-05
3.7149e-05
3.72026e-05
3.7216e-05
3.72148e-05
3.72159e-05
3.72185e-05
3.72226e-05
3.72278e-05
3.72344e-05
3.72417e-05
3.72508e-05
3.72558e-05
3.69488e-05
3.67387e-05
3.6824e-05
3.70045e-05
3.7113e-05
3.7156e-05
3.71924e-05
3.72123e-05
3.72178e-05
3.7217e-05
3.72154e-05
3.72094e-05
3.721e-05
3.72119e-05
3.72152e-05
3.72194e-05
3.72247e-05
3.72304e-05
3.72374e-05
3.72444e-05
3.72401e-05
3.7234e-05
3.72342e-05
3.72398e-05
3.7241e-05
3.72369e-05
3.723e-05
3.72231e-05
3.72172e-05
3.72129e-05
3.72103e-05
3.72046e-05
3.72048e-05
3.72062e-05
3.72087e-05
3.72121e-05
3.72166e-05
3.72212e-05
3.72262e-05
3.723e-05
3.72332e-05
3.72315e-05
3.72312e-05
3.72336e-05
3.72328e-05
3.72294e-05
3.72238e-05
3.72178e-05
3.72124e-05
3.72084e-05
3.72057e-05
3.71999e-05
3.71998e-05
3.72008e-05
3.72028e-05
3.72056e-05
3.72094e-05
3.72133e-05
3.72179e-05
3.72216e-05
3.72244e-05
3.72238e-05
3.7223e-05
3.72237e-05
3.72229e-05
3.72204e-05
3.7216e-05
3.72113e-05
3.72069e-05
3.72034e-05
3.72011e-05
3.71956e-05
3.71953e-05
3.71959e-05
3.71975e-05
3.71998e-05
3.72029e-05
3.72062e-05
3.72099e-05
3.72127e-05
3.72153e-05
3.72154e-05
3.72158e-05
3.72169e-05
3.72162e-05
3.7214e-05
3.72104e-05
3.72063e-05
3.72024e-05
3.71992e-05
3.71969e-05
3.71915e-05
3.7191e-05
3.71914e-05
3.71926e-05
3.71945e-05
3.71972e-05
3.72e-05
3.72034e-05
3.72061e-05
3.72086e-05
3.72091e-05
3.72093e-05
3.72097e-05
3.7209e-05
3.72073e-05
3.72043e-05
3.7201e-05
3.71977e-05
3.71948e-05
3.71927e-05
3.71877e-05
3.71871e-05
3.71872e-05
3.71882e-05
3.71897e-05
3.71919e-05
3.71944e-05
3.71972e-05
3.71995e-05
3.72018e-05
3.72026e-05
3.72033e-05
3.7204e-05
3.72036e-05
3.7202e-05
3.71995e-05
3.71965e-05
3.71936e-05
3.7191e-05
3.7189e-05
3.71841e-05
3.71834e-05
3.71834e-05
3.71841e-05
3.71854e-05
3.71873e-05
3.71894e-05
3.7192e-05
3.71941e-05
3.71963e-05
3.71972e-05
3.71979e-05
3.71983e-05
3.71979e-05
3.71967e-05
3.71946e-05
3.71921e-05
3.71895e-05
3.71872e-05
3.71854e-05
3.71808e-05
3.71801e-05
3.718e-05
3.71804e-05
3.71815e-05
3.71831e-05
3.71849e-05
3.71871e-05
3.71891e-05
3.7191e-05
3.71921e-05
3.7193e-05
3.71935e-05
3.71932e-05
3.71922e-05
3.71904e-05
3.71882e-05
3.71859e-05
3.71838e-05
3.71821e-05
3.71777e-05
3.7177e-05
3.71768e-05
3.71771e-05
3.71779e-05
3.71793e-05
3.71809e-05
3.71829e-05
3.71847e-05
3.71865e-05
3.71876e-05
3.71884e-05
3.71889e-05
3.71887e-05
3.71879e-05
3.71864e-05
3.71845e-05
3.71825e-05
3.71806e-05
3.7179e-05
3.7175e-05
3.71742e-05
3.71739e-05
3.71741e-05
3.71747e-05
3.71759e-05
3.71773e-05
3.71791e-05
3.71807e-05
3.71824e-05
3.71835e-05
3.71844e-05
3.71849e-05
3.71849e-05
3.71842e-05
3.71829e-05
3.71812e-05
3.71794e-05
3.71777e-05
3.71762e-05
3.71724e-05
3.71717e-05
3.71713e-05
3.71714e-05
3.71719e-05
3.71729e-05
3.71741e-05
3.71757e-05
3.71772e-05
3.71788e-05
3.71798e-05
3.71807e-05
3.71813e-05
3.71813e-05
3.71807e-05
3.71796e-05
3.71782e-05
3.71766e-05
3.7175e-05
3.71736e-05
3.71701e-05
3.71694e-05
3.71689e-05
3.71689e-05
3.71693e-05
3.71702e-05
3.71713e-05
3.71727e-05
3.7174e-05
3.71755e-05
3.71766e-05
3.71775e-05
3.7178e-05
3.71781e-05
3.71777e-05
3.71767e-05
3.71755e-05
3.7174e-05
3.71726e-05
3.71712e-05
3.71681e-05
3.71673e-05
3.71669e-05
3.71668e-05
3.71671e-05
3.71678e-05
3.71687e-05
3.717e-05
3.71713e-05
3.71727e-05
3.71737e-05
3.71746e-05
3.71751e-05
3.71753e-05
3.71749e-05
3.71741e-05
3.7173e-05
3.71717e-05
3.71704e-05
3.71691e-05
3.71662e-05
3.71655e-05
3.7165e-05
3.71649e-05
3.71651e-05
3.71657e-05
3.71665e-05
3.71677e-05
3.71688e-05
3.71701e-05
3.71711e-05
3.7172e-05
3.71726e-05
3.71728e-05
3.71725e-05
3.71718e-05
3.71709e-05
3.71697e-05
3.71684e-05
3.71673e-05
3.71646e-05
3.71639e-05
3.71634e-05
3.71632e-05
3.71633e-05
3.71639e-05
3.71646e-05
3.71657e-05
3.71667e-05
3.7168e-05
3.71689e-05
3.71698e-05
3.71704e-05
3.71706e-05
3.71704e-05
3.71698e-05
3.71689e-05
3.71679e-05
3.71667e-05
3.71656e-05
3.71632e-05
3.71625e-05
3.71619e-05
3.71617e-05
3.71618e-05
3.71622e-05
3.71629e-05
3.71639e-05
3.71649e-05
3.7166e-05
3.7167e-05
3.71678e-05
3.71684e-05
3.71687e-05
3.71685e-05
3.7168e-05
3.71673e-05
3.71663e-05
3.71652e-05
3.71642e-05
3.7162e-05
3.71613e-05
3.71607e-05
3.71605e-05
3.71605e-05
3.71609e-05
3.71615e-05
3.71624e-05
3.71633e-05
3.71645e-05
3.71653e-05
3.71662e-05
3.71668e-05
3.71671e-05
3.7167e-05
3.71666e-05
3.71659e-05
3.71649e-05
3.71639e-05
3.71629e-05
3.71609e-05
3.71602e-05
3.71597e-05
3.71593e-05
3.71594e-05
3.71597e-05
3.71602e-05
3.71611e-05
3.7162e-05
3.71631e-05
3.71639e-05
3.71648e-05
3.71653e-05
3.71656e-05
3.71656e-05
3.71652e-05
3.71646e-05
3.71637e-05
3.71628e-05
3.71618e-05
3.71601e-05
3.71594e-05
3.71589e-05
3.71585e-05
3.71585e-05
3.71588e-05
3.71592e-05
3.71601e-05
3.71609e-05
3.7162e-05
3.71628e-05
3.71637e-05
3.71642e-05
3.71646e-05
3.71646e-05
3.71642e-05
3.71637e-05
3.71629e-05
3.71619e-05
3.7161e-05
3.71594e-05
3.71587e-05
3.71581e-05
3.71577e-05
3.71577e-05
3.7158e-05
3.71584e-05
3.71592e-05
3.716e-05
3.7161e-05
3.71619e-05
3.71627e-05
3.71632e-05
3.71636e-05
3.71637e-05
3.71633e-05
3.71628e-05
3.7162e-05
3.71611e-05
3.71603e-05
3.7159e-05
3.71583e-05
3.71577e-05
3.71573e-05
3.71573e-05
3.71575e-05
3.71578e-05
3.71586e-05
3.71594e-05
3.71604e-05
3.71612e-05
3.71621e-05
3.71626e-05
3.7163e-05
3.71631e-05
3.71628e-05
3.71623e-05
3.71616e-05
3.71607e-05
3.71599e-05
3.71587e-05
3.7158e-05
3.71574e-05
3.7157e-05
3.7157e-05
3.71572e-05
3.71575e-05
3.71583e-05
3.7159e-05
3.71601e-05
3.71608e-05
3.71617e-05
3.71622e-05
3.71626e-05
3.71628e-05
3.71624e-05
3.7162e-05
3.71612e-05
3.71603e-05
3.71596e-05
3.71905e-05
3.71951e-05
3.71886e-05
3.71875e-05
3.71948e-05
3.7189e-05
3.71883e-05
3.71985e-05
3.71916e-05
3.72018e-05
3.71937e-05
3.72044e-05
3.71953e-05
3.72052e-05
3.72072e-05
3.71952e-05
3.72024e-05
3.71933e-05
3.71911e-05
3.71978e-05
2.34024e-05
2.24626e-05
2.33639e-05
2.58058e-05
2.91701e-05
3.2795e-05
3.61622e-05
3.9053e-05
4.14232e-05
4.32497e-05
4.44499e-05
4.49115e-05
4.45728e-05
4.34713e-05
4.16916e-05
3.92568e-05
3.61907e-05
3.25725e-05
2.86806e-05
2.50917e-05
2.49547e-05
2.96672e-05
3.4594e-05
3.87526e-05
4.17167e-05
4.35882e-05
4.47186e-05
4.54078e-05
4.58046e-05
4.58529e-05
4.52906e-05
4.38783e-05
4.15776e-05
3.84743e-05
3.46616e-05
3.02426e-05
2.57734e-05
2.2219e-05
2.05698e-05
2.14258e-05
3.49078e-05
3.82824e-05
4.05194e-05
4.18808e-05
4.2652e-05
4.30349e-05
4.32211e-05
4.33315e-05
4.34252e-05
4.32439e-05
4.20921e-05