/*--------------------------------*- C++ -*----------------------------------*\
| =========                 |                                                 |
| \\      /  F ield         | OpenFOAM: The Open Source CFD Toolbox           |
|  \\    /   O peration     | Version:  2.4.0                                 |
|   \\  /    A nd           | Web:      www.OpenFOAM.org                      |
|    \\/     M anipulation  |                                                 |
\*---------------------------------------------------------------------------*/
FoamFile
{
    version     2.0;
    format      ascii;
    class       volScalarField;
    location    "110";
    object      k;
}
// * * * * * * * * * * * * * * * * * * * * * * * * * * * * * * * * * * * * * //

dimensions      [0 2 -2 0 0 0 0];

internalField   nonuniform List<scalar> 
283312
(
1.36459e-05
1.13735e-05
1.09777e-05
1.24371e-05
1.55479e-05
1.99403e-05
2.5019e-05
3.01354e-05
3.48171e-05
3.87626e-05
4.17582e-05
4.36227e-05
4.42163e-05
4.34809e-05
4.14282e-05
3.81103e-05
3.3681e-05
2.84441e-05
2.29114e-05
1.77784e-05
1.67079e-05
2.05111e-05
2.59662e-05
3.19479e-05
3.73806e-05
4.1629e-05
4.46199e-05
4.6575e-05
4.77513e-05
4.82787e-05
4.80389e-05
4.67581e-05
4.42664e-05
4.06287e-05
3.60789e-05
3.08164e-05
2.52984e-05
2.03234e-05
1.6818e-05
1.55438e-05
2.91788e-05
3.47737e-05
3.93055e-05
4.25555e-05
4.46561e-05
4.58472e-05
4.64336e-05
4.67077e-05
4.68322e-05
4.67542e-05
4.58468e-05
4.33202e-05
3.89294e-05
3.31042e-05
2.66582e-05
2.07887e-05
1.70205e-05
1.62911e-05
1.87099e-05
2.3501e-05
3.70471e-05
4.05796e-05
4.27846e-05
4.39778e-05
4.45341e-05
4.4775e-05
4.49224e-05
4.50638e-05
4.51475e-05
4.49171e-05
4.31226e-05
3.87506e-05
3.21924e-05
2.50367e-05
1.9218e-05
1.63867e-05
1.71011e-05
2.09035e-05
2.64846e-05
3.22765e-05
4.0476e-05
4.23459e-05
4.3294e-05
4.372e-05
4.39153e-05
4.40285e-05
4.41454e-05
4.42922e-05
4.45583e-05
4.4646e-05
4.24331e-05
3.70542e-05
2.96525e-05
2.25972e-05
1.82247e-05
1.80955e-05
2.16792e-05
2.72059e-05
3.28539e-05
3.7442e-05
4.18329e-05
4.27747e-05
4.31829e-05
4.33398e-05
4.34178e-05
4.34883e-05
4.35973e-05
4.37473e-05
4.39664e-05
4.29652e-05
3.88209e-05
3.2539e-05
2.48136e-05
1.93057e-05
1.84286e-05
2.1493e-05
2.67452e-05
3.2314e-05
3.69207e-05
4.00733e-05
4.2306e-05
4.27855e-05
4.29813e-05
4.30673e-05
4.31324e-05
4.32011e-05
4.33034e-05
4.3445e-05
4.36472e-05
4.14067e-05
3.62876e-05
3.39645e-05
3.32277e-05
2.93986e-05
2.67815e-05
2.81981e-05
3.20808e-05
3.62081e-05
3.9374e-05
4.13329e-05
4.25249e-05
4.27695e-05
4.2862e-05
4.29032e-05
4.29425e-05
4.2995e-05
4.30782e-05
4.32054e-05
4.33767e-05
3.89488e-05
3.17062e-05
2.64735e-05
2.48459e-05
2.51175e-05
2.70956e-05
3.08112e-05
3.50126e-05
3.84706e-05
4.07409e-05
4.1977e-05
4.26298e-05
4.27339e-05
4.27747e-05
4.28018e-05
4.28341e-05
4.28798e-05
4.29457e-05
4.30574e-05
4.3213e-05
3.81123e-05
3.065e-05
2.42366e-05
2.17328e-05
2.36931e-05
2.82749e-05
3.33495e-05
3.74841e-05
4.01945e-05
4.16769e-05
4.23641e-05
4.26679e-05
4.27045e-05
4.27203e-05
4.27355e-05
4.27571e-05
4.27921e-05
4.28426e-05
4.29378e-05
4.30611e-05
3.72943e-05
2.98602e-05
2.36911e-05
2.18578e-05
2.51981e-05
3.09271e-05
3.60976e-05
3.954e-05
4.13947e-05
4.22348e-05
4.25603e-05
4.26571e-05
4.26723e-05
4.2682e-05
4.26948e-05
4.27121e-05
4.27397e-05
4.27773e-05
4.28542e-05
4.2942e-05
3.65909e-05
2.91349e-05
2.32061e-05
2.25923e-05
2.72863e-05
3.34184e-05
3.80948e-05
4.07535e-05
4.19782e-05
4.24531e-05
4.26109e-05
4.26421e-05
4.2651e-05
4.26576e-05
4.26666e-05
4.26791e-05
4.26995e-05
4.27284e-05
4.27886e-05
4.28642e-05
3.61162e-05
2.91016e-05
2.39642e-05
2.41803e-05
2.92898e-05
3.51326e-05
3.91898e-05
4.13042e-05
4.21988e-05
4.25176e-05
4.26152e-05
4.26285e-05
4.2636e-05
4.26416e-05
4.26491e-05
4.26588e-05
4.26735e-05
4.26949e-05
4.27378e-05
4.27954e-05
3.58627e-05
2.83983e-05
2.29944e-05
2.40913e-05
2.9869e-05
3.57433e-05
3.95729e-05
4.148e-05
4.22576e-05
4.25261e-05
4.26065e-05
4.26194e-05
4.2626e-05
4.26305e-05
4.26361e-05
4.26432e-05
4.26537e-05
4.26693e-05
4.26991e-05
4.27732e-05
3.59738e-05
2.92866e-05
2.43652e-05
2.53331e-05
3.06902e-05
3.61753e-05
3.97639e-05
4.15504e-05
4.22758e-05
4.25249e-05
4.25992e-05
4.26136e-05
4.26191e-05
4.26227e-05
4.26272e-05
4.26327e-05
4.26402e-05
4.26517e-05
4.26716e-05
4.27357e-05
3.55425e-05
2.7728e-05
2.32217e-05
2.53856e-05
3.12113e-05
3.66201e-05
4.00103e-05
4.1655e-05
4.23101e-05
4.25313e-05
4.25962e-05
4.26105e-05
4.2614e-05
4.26166e-05
4.262e-05
4.26241e-05
4.26295e-05
4.26357e-05
4.26449e-05
4.26486e-05
3.57704e-05
2.61589e-05
2.27266e-05
2.62715e-05
3.2538e-05
3.76977e-05
4.06247e-05
4.19256e-05
4.2406e-05
4.2558e-05
4.25999e-05
4.26095e-05
4.26103e-05
4.26119e-05
4.26144e-05
4.26178e-05
4.26221e-05
4.2627e-05
4.26334e-05
4.26358e-05
4.18907e-05
4.14259e-05
4.1613e-05
4.20091e-05
4.22781e-05
4.2398e-05
4.25017e-05
4.2569e-05
4.25986e-05
4.26077e-05
4.26093e-05
4.26061e-05
4.26064e-05
4.26076e-05
4.26096e-05
4.26122e-05
4.26156e-05
4.26193e-05
4.26239e-05
4.26288e-05
4.26122e-05
4.26017e-05
4.26063e-05
4.26168e-05
4.26219e-05
4.26207e-05
4.26176e-05
4.26143e-05
4.26112e-05
4.26085e-05
4.26068e-05
4.2603e-05
4.2603e-05
4.26038e-05
4.26054e-05
4.26076e-05
4.26104e-05
4.26133e-05
4.26166e-05
4.2619e-05
4.26208e-05
4.26197e-05
4.26195e-05
4.26213e-05
4.2621e-05
4.2619e-05
4.26156e-05
4.26119e-05
4.26084e-05
4.26057e-05
4.26039e-05
4.26e-05
4.25999e-05
4.26004e-05
4.26017e-05
4.26034e-05
4.26058e-05
4.26083e-05
4.26111e-05
4.26136e-05
4.26153e-05
4.26149e-05
4.26143e-05
4.26148e-05
4.26146e-05
4.26132e-05
4.26106e-05
4.26076e-05
4.26047e-05
4.26024e-05
4.26008e-05
4.25973e-05
4.2597e-05
4.25974e-05
4.25983e-05
4.25998e-05
4.26017e-05
4.26038e-05
4.26061e-05
4.26078e-05
4.26094e-05
4.26096e-05
4.26098e-05
4.26105e-05
4.26102e-05
4.2609e-05
4.26068e-05
4.26043e-05
4.26018e-05
4.25997e-05
4.25982e-05
4.25947e-05
4.25943e-05
4.25945e-05
4.25953e-05
4.25965e-05
4.25981e-05
4.25999e-05
4.2602e-05
4.26037e-05
4.26052e-05
4.26055e-05
4.26056e-05
4.2606e-05
4.26057e-05
4.26047e-05
4.2603e-05
4.26009e-05
4.25988e-05
4.2597e-05
4.25956e-05
4.25923e-05
4.25919e-05
4.2592e-05
4.25925e-05
4.25934e-05
4.25948e-05
4.25963e-05
4.25981e-05
4.25996e-05
4.26009e-05
4.26015e-05
4.26019e-05
4.26024e-05
4.26022e-05
4.26014e-05
4.25999e-05
4.25981e-05
4.25962e-05
4.25945e-05
4.25932e-05
4.25901e-05
4.25896e-05
4.25896e-05
4.259e-05
4.25908e-05
4.25919e-05
4.25932e-05
4.25948e-05
4.25962e-05
4.25975e-05
4.25981e-05
4.25985e-05
4.25989e-05
4.25987e-05
4.2598e-05
4.25968e-05
4.25953e-05
4.25936e-05
4.25922e-05
4.25909e-05
4.2588e-05
4.25875e-05
4.25874e-05
4.25877e-05
4.25883e-05
4.25893e-05
4.25904e-05
4.25918e-05
4.2593e-05
4.25942e-05
4.25949e-05
4.25955e-05
4.25959e-05
4.25958e-05
4.25952e-05
4.25942e-05
4.25928e-05
4.25914e-05
4.259e-05
4.25889e-05
4.25861e-05
4.25856e-05
4.25855e-05
4.25856e-05
4.25861e-05
4.25869e-05
4.25879e-05
4.25892e-05
4.25903e-05
4.25914e-05
4.25921e-05
4.25927e-05
4.2593e-05
4.2593e-05
4.25925e-05
4.25916e-05
4.25905e-05
4.25892e-05
4.2588e-05
4.25869e-05
4.25844e-05
4.25839e-05
4.25837e-05
4.25837e-05
4.25841e-05
4.25848e-05
4.25857e-05
4.25868e-05
4.25878e-05
4.25888e-05
4.25896e-05
4.25901e-05
4.25905e-05
4.25905e-05
4.25902e-05
4.25894e-05
4.25884e-05
4.25873e-05
4.25862e-05
4.25852e-05
4.25828e-05
4.25823e-05
4.2582e-05
4.25821e-05
4.25824e-05
4.2583e-05
4.25837e-05
4.25847e-05
4.25856e-05
4.25866e-05
4.25873e-05
4.25879e-05
4.25882e-05
4.25883e-05
4.2588e-05
4.25874e-05
4.25865e-05
4.25855e-05
4.25845e-05
4.25836e-05
4.25814e-05
4.25809e-05
4.25806e-05
4.25805e-05
4.25808e-05
4.25813e-05
4.25819e-05
4.25828e-05
4.25837e-05
4.25846e-05
4.25852e-05
4.25858e-05
4.25862e-05
4.25863e-05
4.25861e-05
4.25855e-05
4.25848e-05
4.25839e-05
4.2583e-05
4.25821e-05
4.25801e-05
4.25796e-05
4.25793e-05
4.25792e-05
4.25794e-05
4.25798e-05
4.25804e-05
4.25812e-05
4.25819e-05
4.25828e-05
4.25835e-05
4.2584e-05
4.25844e-05
4.25845e-05
4.25844e-05
4.25839e-05
4.25832e-05
4.25824e-05
4.25816e-05
4.25808e-05
4.25789e-05
4.25784e-05
4.25781e-05
4.2578e-05
4.25781e-05
4.25785e-05
4.2579e-05
4.25797e-05
4.25804e-05
4.25812e-05
4.25819e-05
4.25824e-05
4.25828e-05
4.2583e-05
4.25829e-05
4.25825e-05
4.25819e-05
4.25811e-05
4.25804e-05
4.25796e-05
4.25779e-05
4.25774e-05
4.25771e-05
4.2577e-05
4.2577e-05
4.25773e-05
4.25778e-05
4.25784e-05
4.25791e-05
4.25799e-05
4.25805e-05
4.2581e-05
4.25814e-05
4.25816e-05
4.25815e-05
4.25812e-05
4.25807e-05
4.258e-05
4.25793e-05
4.25786e-05
4.2577e-05
4.25765e-05
4.25762e-05
4.2576e-05
4.25761e-05
4.25763e-05
4.25767e-05
4.25773e-05
4.25779e-05
4.25787e-05
4.25793e-05
4.25798e-05
4.25802e-05
4.25804e-05
4.25804e-05
4.25801e-05
4.25796e-05
4.2579e-05
4.25783e-05
4.25777e-05
4.25763e-05
4.25758e-05
4.25755e-05
4.25753e-05
4.25753e-05
4.25755e-05
4.25758e-05
4.25764e-05
4.2577e-05
4.25777e-05
4.25783e-05
4.25788e-05
4.25792e-05
4.25794e-05
4.25794e-05
4.25791e-05
4.25787e-05
4.25782e-05
4.25775e-05
4.25769e-05
4.25756e-05
4.25752e-05
4.25748e-05
4.25746e-05
4.25746e-05
4.25748e-05
4.25751e-05
4.25756e-05
4.25761e-05
4.25768e-05
4.25774e-05
4.25779e-05
4.25783e-05
4.25785e-05
4.25785e-05
4.25783e-05
4.25779e-05
4.25774e-05
4.25768e-05
4.25762e-05
4.25751e-05
4.25747e-05
4.25743e-05
4.25741e-05
4.2574e-05
4.25742e-05
4.25744e-05
4.25749e-05
4.25755e-05
4.25761e-05
4.25767e-05
4.25772e-05
4.25776e-05
4.25778e-05
4.25779e-05
4.25777e-05
4.25774e-05
4.25769e-05
4.25763e-05
4.25757e-05
4.25747e-05
4.25742e-05
4.25738e-05
4.25736e-05
4.25735e-05
4.25737e-05
4.25739e-05
4.25744e-05
4.25749e-05
4.25755e-05
4.25761e-05
4.25766e-05
4.2577e-05
4.25772e-05
4.25773e-05
4.25771e-05
4.25768e-05
4.25763e-05
4.25758e-05
4.25752e-05
4.25744e-05
4.2574e-05
4.25736e-05
4.25733e-05
4.25733e-05
4.25734e-05
4.25736e-05
4.2574e-05
4.25745e-05
4.25752e-05
4.25757e-05
4.25762e-05
4.25766e-05
4.25769e-05
4.2577e-05
4.25768e-05
4.25765e-05
4.25761e-05
4.25755e-05
4.2575e-05
4.25743e-05
4.25738e-05
4.25735e-05
4.25732e-05
4.25731e-05
4.25733e-05
4.25734e-05
4.25739e-05
4.25744e-05
4.2575e-05
4.25755e-05
4.2576e-05
4.25764e-05
4.25767e-05
4.25768e-05
4.25766e-05
4.25763e-05
4.25759e-05
4.25753e-05
4.25748e-05
4.2604e-05
4.26089e-05
4.26026e-05
4.26014e-05
4.26087e-05
4.2603e-05
4.2602e-05
4.26117e-05
4.26049e-05
4.26143e-05
4.26063e-05
4.26161e-05
4.26074e-05
4.26167e-05
4.26189e-05
4.26074e-05
4.26144e-05
4.26059e-05
4.26038e-05
4.26109e-05
1.31524e-05
1.11015e-05
1.10221e-05
1.28452e-05
1.6315e-05
2.10148e-05
2.62711e-05
3.14583e-05
3.61369e-05
4.00275e-05
4.29253e-05
4.46496e-05
4.50622e-05
4.4112e-05
4.18256e-05
3.8258e-05
3.35764e-05
2.81116e-05
2.24196e-05
1.72429e-05
1.76243e-05
2.1845e-05
2.75428e-05
3.35502e-05
3.88437e-05
4.28832e-05
4.56953e-05
4.75186e-05
4.86013e-05
4.90619e-05
4.87668e-05
4.74193e-05
4.48287e-05
4.1049e-05
3.63132e-05
3.08557e-05
2.52019e-05
2.0233e-05
1.69242e-05
1.6022e-05
3.07105e-05
3.62045e-05
4.05602e-05
4.36309e-05
4.55824e-05
4.6662e-05
4.71877e-05
4.74354e-05
4.75605e-05
4.75473e-05
4.67602e-05
4.43278e-05
3.99295e-05
3.39807e-05
2.73417e-05
2.13496e-05
1.76501e-05
1.71854e-05
1.9946e-05
2.49852e-05
3.8371e-05
4.17038e-05
4.37397e-05
4.4815e-05
4.5304e-05
4.55176e-05
4.56581e-05
4.58015e-05
4.58853e-05
4.57588e-05
4.41217e-05
3.97882e-05
3.30926e-05
2.57489e-05
1.98916e-05
1.7235e-05
1.82578e-05
2.23444e-05
2.80466e-05
3.37744e-05
4.15879e-05
4.32819e-05
4.41199e-05
4.44889e-05
4.46608e-05
4.47663e-05
4.48839e-05
4.50349e-05
4.53323e-05
4.57207e-05
4.38798e-05
3.86561e-05
3.11459e-05
2.38903e-05
1.94687e-05
1.95038e-05
2.32863e-05
2.8869e-05
3.43991e-05
3.87704e-05
4.27861e-05
4.36085e-05
4.39563e-05
4.4088e-05
4.41593e-05
4.42295e-05
4.43412e-05
4.44951e-05
4.47445e-05
4.39926e-05
4.01063e-05
3.39561e-05
2.60007e-05
2.04556e-05
1.97905e-05
2.31015e-05
2.84503e-05
3.39176e-05
3.82986e-05
4.12082e-05
4.31685e-05
4.3575e-05
4.37392e-05
4.3814e-05
4.38764e-05
4.39451e-05
4.40493e-05
4.41938e-05
4.4424e-05
4.23437e-05
3.75223e-05
3.63971e-05
3.66726e-05
3.24968e-05
2.92586e-05
3.02676e-05
3.38553e-05
3.76913e-05
4.05809e-05
4.23251e-05
4.33302e-05
4.35339e-05
4.3611e-05
4.36478e-05
4.36869e-05
4.37403e-05
4.38251e-05
4.39547e-05
4.41358e-05
3.94889e-05
3.21284e-05
2.73849e-05
2.655e-05
2.71818e-05
2.91017e-05
3.26191e-05
3.65631e-05
3.9747e-05
4.1785e-05
4.28646e-05
4.3399e-05
4.34855e-05
4.35207e-05
4.35468e-05
4.35794e-05
4.36258e-05
4.36926e-05
4.38063e-05
4.39647e-05
3.85891e-05
3.09632e-05
2.46257e-05
2.25336e-05
2.4958e-05
2.97592e-05
3.47993e-05
3.87526e-05
4.12557e-05
4.25802e-05
4.31754e-05
4.34195e-05
4.34503e-05
4.3465e-05
4.34803e-05
4.35026e-05
4.35384e-05
4.35896e-05
4.36866e-05
4.38112e-05
3.77465e-05
3.01896e-05
2.40241e-05
2.2445e-05
2.61734e-05
3.21159e-05
3.72649e-05
4.05713e-05
4.22918e-05
4.30457e-05
4.33284e-05
4.34036e-05
4.34173e-05
4.3427e-05
4.344e-05
4.34578e-05
4.3486e-05
4.35241e-05
4.36023e-05
4.36903e-05
3.70251e-05
2.94774e-05
2.35487e-05
2.31689e-05
2.81757e-05
3.44464e-05
3.90841e-05
4.16451e-05
4.27917e-05
4.32238e-05
4.33635e-05
4.33874e-05
4.33958e-05
4.34025e-05
4.3412e-05
4.34248e-05
4.34457e-05
4.3475e-05
4.35362e-05
4.3612e-05
3.65372e-05
2.95006e-05
2.43818e-05
2.47932e-05
3.01464e-05
3.60765e-05
4.00929e-05
4.21369e-05
4.29815e-05
4.32755e-05
4.33635e-05
4.33738e-05
4.3381e-05
4.33867e-05
4.33944e-05
4.34044e-05
4.34195e-05
4.34412e-05
4.34848e-05
4.35425e-05
3.62843e-05
2.87732e-05
2.33862e-05
2.47049e-05
3.07085e-05
3.66535e-05
4.04454e-05
4.22939e-05
4.30316e-05
4.32809e-05
4.3354e-05
4.33647e-05
4.3371e-05
4.33756e-05
4.33814e-05
4.33887e-05
4.33995e-05
4.34155e-05
4.34456e-05
4.35211e-05
3.64134e-05
2.97411e-05
2.4822e-05
2.59676e-05
3.15222e-05
3.70711e-05
4.06256e-05
4.23585e-05
4.30474e-05
4.32789e-05
4.33465e-05
4.33589e-05
4.33641e-05
4.33678e-05
4.33724e-05
4.33781e-05
4.33859e-05
4.33976e-05
4.34177e-05
4.34833e-05
3.59583e-05
2.80956e-05
2.36492e-05
2.60382e-05
3.20552e-05
3.75139e-05
4.08655e-05
4.24581e-05
4.30791e-05
4.32843e-05
4.33433e-05
4.33556e-05
4.33589e-05
4.33616e-05
4.33651e-05
4.33694e-05
4.33749e-05
4.33814e-05
4.33908e-05
4.33943e-05
3.61573e-05
2.63073e-05
2.30603e-05
2.69431e-05
3.34164e-05
3.85981e-05
4.14692e-05
4.27176e-05
4.31688e-05
4.33084e-05
4.33462e-05
4.33542e-05
4.3355e-05
4.33567e-05
4.33595e-05
4.3363e-05
4.33674e-05
4.33724e-05
4.33789e-05
4.33813e-05
4.26e-05
4.21445e-05
4.23603e-05
4.27678e-05
4.3033e-05
4.31515e-05
4.32536e-05
4.33176e-05
4.33448e-05
4.33527e-05
4.3354e-05
4.33507e-05
4.33511e-05
4.33524e-05
4.33545e-05
4.33573e-05
4.33608e-05
4.33645e-05
4.33692e-05
4.33742e-05
4.33568e-05
4.33465e-05
4.33517e-05
4.33624e-05
4.33672e-05
4.33656e-05
4.33623e-05
4.33589e-05
4.33556e-05
4.3353e-05
4.33513e-05
4.33475e-05
4.33477e-05
4.33486e-05
4.33503e-05
4.33525e-05
4.33554e-05
4.33584e-05
4.33617e-05
4.33642e-05
4.3366e-05
4.33647e-05
4.33645e-05
4.33663e-05
4.33659e-05
4.33638e-05
4.33602e-05
4.33563e-05
4.33528e-05
4.33501e-05
4.33483e-05
4.33445e-05
4.33445e-05
4.33451e-05
4.33464e-05
4.33483e-05
4.33507e-05
4.33533e-05
4.33562e-05
4.33586e-05
4.33603e-05
4.33598e-05
4.33592e-05
4.33597e-05
4.33594e-05
4.33579e-05
4.33551e-05
4.3352e-05
4.33492e-05
4.33469e-05
4.33453e-05
4.33417e-05
4.33416e-05
4.3342e-05
4.3343e-05
4.33445e-05
4.33465e-05
4.33486e-05
4.3351e-05
4.33528e-05
4.33544e-05
4.33544e-05
4.33546e-05
4.33553e-05
4.3355e-05
4.33536e-05
4.33513e-05
4.33487e-05
4.33462e-05
4.33441e-05
4.33426e-05
4.33391e-05
4.33388e-05
4.33391e-05
4.33399e-05
4.33411e-05
4.33428e-05
4.33447e-05
4.33468e-05
4.33485e-05
4.335e-05
4.33503e-05
4.33504e-05
4.33507e-05
4.33503e-05
4.33493e-05
4.33475e-05
4.33453e-05
4.33432e-05
4.33414e-05
4.334e-05
4.33367e-05
4.33364e-05
4.33365e-05
4.33371e-05
4.33381e-05
4.33395e-05
4.33411e-05
4.33429e-05
4.33443e-05
4.33457e-05
4.33462e-05
4.33466e-05
4.33471e-05
4.33468e-05
4.33459e-05
4.33443e-05
4.33425e-05
4.33406e-05
4.33389e-05
4.33376e-05
4.33344e-05
4.3334e-05
4.3334e-05
4.33345e-05
4.33353e-05
4.33365e-05
4.33379e-05
4.33395e-05
4.33409e-05
4.33422e-05
4.33428e-05
4.33432e-05
4.33435e-05
4.33432e-05
4.33425e-05
4.33412e-05
4.33397e-05
4.3338e-05
4.33365e-05
4.33353e-05
4.33324e-05
4.33319e-05
4.33318e-05
4.33322e-05
4.33328e-05
4.33338e-05
4.3335e-05
4.33364e-05
4.33376e-05
4.33388e-05
4.33395e-05
4.33401e-05
4.33404e-05
4.33403e-05
4.33397e-05
4.33386e-05
4.33372e-05
4.33357e-05
4.33343e-05
4.33332e-05
4.33304e-05
4.333e-05
4.33298e-05
4.333e-05
4.33306e-05
4.33314e-05
4.33325e-05
4.33337e-05
4.33348e-05
4.3336e-05
4.33367e-05
4.33372e-05
4.33375e-05
4.33374e-05
4.33369e-05
4.3336e-05
4.33348e-05
4.33335e-05
4.33323e-05
4.33313e-05
4.33287e-05
4.33282e-05
4.3328e-05
4.33281e-05
4.33285e-05
4.33293e-05
4.33302e-05
4.33313e-05
4.33323e-05
4.33333e-05
4.3334e-05
4.33346e-05
4.3335e-05
4.3335e-05
4.33346e-05
4.33338e-05
4.33327e-05
4.33316e-05
4.33304e-05
4.33295e-05
4.33271e-05
4.33266e-05
4.33263e-05
4.33264e-05
4.33267e-05
4.33274e-05
4.33281e-05
4.33291e-05
4.33301e-05
4.33311e-05
4.33317e-05
4.33323e-05
4.33327e-05
4.33327e-05
4.33324e-05
4.33317e-05
4.33308e-05
4.33298e-05
4.33287e-05
4.33278e-05
4.33256e-05
4.33251e-05
4.33249e-05
4.33249e-05
4.33251e-05
4.33256e-05
4.33263e-05
4.33272e-05
4.33281e-05
4.3329e-05
4.33297e-05
4.33302e-05
4.33306e-05
4.33307e-05
4.33304e-05
4.33298e-05
4.33291e-05
4.33281e-05
4.33272e-05
4.33263e-05
4.33243e-05
4.33238e-05
4.33235e-05
4.33235e-05
4.33237e-05
4.33241e-05
4.33247e-05
4.33255e-05
4.33263e-05
4.33272e-05
4.33278e-05
4.33284e-05
4.33288e-05
4.33289e-05
4.33287e-05
4.33282e-05
4.33275e-05
4.33267e-05
4.33258e-05
4.3325e-05
4.33231e-05
4.33227e-05
4.33223e-05
4.33223e-05
4.33224e-05
4.33228e-05
4.33233e-05
4.3324e-05
4.33248e-05
4.33256e-05
4.33262e-05
4.33268e-05
4.33271e-05
4.33273e-05
4.33271e-05
4.33267e-05
4.33261e-05
4.33254e-05
4.33246e-05
4.33238e-05
4.33221e-05
4.33216e-05
4.33213e-05
4.33212e-05
4.33213e-05
4.33216e-05
4.33221e-05
4.33227e-05
4.33234e-05
4.33242e-05
4.33248e-05
4.33254e-05
4.33257e-05
4.33259e-05
4.33258e-05
4.33254e-05
4.33249e-05
4.33242e-05
4.33235e-05
4.33228e-05
4.33212e-05
4.33207e-05
4.33204e-05
4.33202e-05
4.33203e-05
4.33206e-05
4.3321e-05
4.33216e-05
4.33222e-05
4.3323e-05
4.33236e-05
4.33241e-05
4.33245e-05
4.33247e-05
4.33246e-05
4.33243e-05
4.33238e-05
4.33232e-05
4.33225e-05
4.33218e-05
4.33205e-05
4.332e-05
4.33196e-05
4.33195e-05
4.33195e-05
4.33197e-05
4.33201e-05
4.33207e-05
4.33213e-05
4.3322e-05
4.33225e-05
4.33231e-05
4.33234e-05
4.33236e-05
4.33236e-05
4.33234e-05
4.33229e-05
4.33223e-05
4.33217e-05
4.33211e-05
4.33198e-05
4.33193e-05
4.3319e-05
4.33188e-05
4.33188e-05
4.3319e-05
4.33193e-05
4.33198e-05
4.33204e-05
4.33211e-05
4.33216e-05
4.33222e-05
4.33225e-05
4.33227e-05
4.33228e-05
4.33225e-05
4.33221e-05
4.33216e-05
4.3321e-05
4.33204e-05
4.33193e-05
4.33188e-05
4.33185e-05
4.33182e-05
4.33182e-05
4.33184e-05
4.33187e-05
4.33192e-05
4.33197e-05
4.33204e-05
4.33209e-05
4.33215e-05
4.33218e-05
4.33221e-05
4.33221e-05
4.33219e-05
4.33215e-05
4.3321e-05
4.33204e-05
4.33199e-05
4.33188e-05
4.33184e-05
4.3318e-05
4.33177e-05
4.33177e-05
4.33179e-05
4.33181e-05
4.33186e-05
4.33191e-05
4.33198e-05
4.33203e-05
4.33209e-05
4.33212e-05
4.33215e-05
4.33215e-05
4.33213e-05
4.3321e-05
4.33205e-05
4.33199e-05
4.33194e-05
4.33186e-05
4.33181e-05
4.33177e-05
4.33175e-05
4.33174e-05
4.33176e-05
4.33178e-05
4.33183e-05
4.33188e-05
4.33194e-05
4.33199e-05
4.33205e-05
4.33208e-05
4.33211e-05
4.33212e-05
4.3321e-05
4.33207e-05
4.33202e-05
4.33196e-05
4.33191e-05
4.33184e-05
4.3318e-05
4.33176e-05
4.33173e-05
4.33173e-05
4.33174e-05
4.33176e-05
4.33181e-05
4.33186e-05
4.33192e-05
4.33197e-05
4.33203e-05
4.33206e-05
4.33209e-05
4.3321e-05
4.33208e-05
4.33205e-05
4.332e-05
4.33195e-05
4.3319e-05
4.33475e-05
4.33519e-05
4.33461e-05
4.33451e-05
4.33519e-05
4.33466e-05
4.33457e-05
4.33548e-05
4.33484e-05
4.33573e-05
4.33498e-05
4.33591e-05
4.33509e-05
4.33597e-05
4.33616e-05
4.33508e-05
4.33574e-05
4.33493e-05
4.33474e-05
4.33539e-05
1.27674e-05
1.09814e-05
1.12554e-05
1.3466e-05
1.73015e-05
2.22783e-05
2.76816e-05
3.29117e-05
3.75603e-05
4.13704e-05
4.41466e-05
4.57102e-05
4.59251e-05
4.4748e-05
4.22175e-05
3.83955e-05
3.34641e-05
2.7783e-05
2.1956e-05
1.67721e-05
1.86895e-05
2.33092e-05
2.92061e-05
3.51961e-05
4.03234e-05
4.41571e-05
4.67925e-05
4.8484e-05
4.94723e-05
4.98663e-05
4.95186e-05
4.81068e-05
4.54143e-05
4.14819e-05
3.65479e-05
3.08882e-05
2.5111e-05
2.01829e-05
1.71176e-05
1.66294e-05
3.22813e-05
3.76548e-05
4.18266e-05
4.47162e-05
4.65195e-05
4.74921e-05
4.79617e-05
4.81861e-05
4.83148e-05
4.83822e-05
4.77454e-05
4.54335e-05
4.10342e-05
3.49481e-05
2.80913e-05
2.19696e-05
1.83522e-05
1.81699e-05
2.12715e-05
2.65351e-05
3.96994e-05
4.28317e-05
4.47024e-05
4.56655e-05
4.6093e-05
4.62827e-05
4.64182e-05
4.65644e-05
4.66462e-05
4.66425e-05
4.51905e-05
4.08962e-05
3.40343e-05
2.64768e-05
2.05873e-05
1.81257e-05
1.94701e-05
2.38339e-05
2.96371e-05
3.52833e-05
4.26968e-05
4.4223e-05
4.49591e-05
4.5277e-05
4.54289e-05
4.55283e-05
4.56475e-05
4.5803e-05
4.61321e-05
4.68762e-05
4.54733e-05
4.04212e-05
3.27712e-05
2.52663e-05
2.07674e-05
2.09564e-05
2.49234e-05
3.0543e-05
3.59409e-05
4.00912e-05
4.37412e-05
4.44546e-05
4.47488e-05
4.48591e-05
4.49254e-05
4.49957e-05
4.51104e-05
4.52682e-05
4.55487e-05
4.5099e-05
4.15224e-05
3.55039e-05
2.72504e-05
2.16501e-05
2.11902e-05
2.47348e-05
3.01599e-05
3.55095e-05
3.96603e-05
4.23336e-05
4.40399e-05
4.43818e-05
4.45191e-05
4.45847e-05
4.46452e-05
4.47141e-05
4.48203e-05
4.49678e-05
4.52272e-05
4.33579e-05
3.89203e-05
3.92357e-05
4.06161e-05
3.59266e-05
3.18972e-05
3.2393e-05
3.56321e-05
3.91575e-05
4.17731e-05
4.33145e-05
4.4151e-05
4.43195e-05
4.43837e-05
4.44172e-05
4.44564e-05
4.45107e-05
4.45972e-05
4.47291e-05
4.492e-05
4.00391e-05
3.25674e-05
2.84213e-05
2.84777e-05
2.94317e-05
3.11977e-05
3.44467e-05
3.81009e-05
4.10061e-05
4.28221e-05
4.37583e-05
4.4189e-05
4.42605e-05
4.42914e-05
4.43168e-05
4.43497e-05
4.43969e-05
4.44646e-05
4.45803e-05
4.47417e-05
3.90761e-05
3.12897e-05
2.50521e-05
2.34107e-05
2.62927e-05
3.12744e-05
3.62484e-05
4.00096e-05
4.23111e-05
4.34891e-05
4.40017e-05
4.41947e-05
4.42209e-05
4.42346e-05
4.42504e-05
4.42733e-05
4.43099e-05
4.43617e-05
4.44605e-05
4.45864e-05
3.82096e-05
3.05384e-05
2.43819e-05
2.30699e-05
2.71851e-05
3.3323e-05
3.84365e-05
4.16053e-05
4.31982e-05
4.3873e-05
4.41179e-05
4.41748e-05
4.41872e-05
4.4197e-05
4.42104e-05
4.42286e-05
4.42574e-05
4.42959e-05
4.43756e-05
4.44637e-05
3.74706e-05
2.9842e-05
2.39153e-05
2.37783e-05
2.90985e-05
3.54977e-05
4.00891e-05
4.25524e-05
4.3624e-05
4.40165e-05
4.414e-05
4.41577e-05
4.41657e-05
4.41726e-05
4.41824e-05
4.41957e-05
4.4217e-05
4.42467e-05
4.4309e-05
4.43849e-05
3.69695e-05
2.99285e-05
2.48271e-05
2.54393e-05
3.10375e-05
3.70481e-05
4.10184e-05
4.29909e-05
4.37868e-05
4.40572e-05
4.41364e-05
4.41441e-05
4.4151e-05
4.41569e-05
4.41649e-05
4.41751e-05
4.41906e-05
4.42127e-05
4.42569e-05
4.43147e-05
3.67181e-05
2.9175e-05
2.38049e-05
2.53518e-05
3.15831e-05
3.75933e-05
4.13426e-05
4.3131e-05
4.38292e-05
4.406e-05
4.41263e-05
4.41351e-05
4.4141e-05
4.41457e-05
4.41517e-05
4.41594e-05
4.41704e-05
4.41867e-05
4.42173e-05
4.4294e-05
3.68674e-05
3.02289e-05
2.53073e-05
2.66352e-05
3.23893e-05
3.79969e-05
4.15126e-05
4.31901e-05
4.38427e-05
4.40573e-05
4.41187e-05
4.41292e-05
4.41341e-05
4.41379e-05
4.41427e-05
4.41486e-05
4.41566e-05
4.41685e-05
4.4189e-05
4.42559e-05
3.6387e-05
2.84905e-05
2.4105e-05
2.67248e-05
3.29339e-05
3.84373e-05
4.17458e-05
4.32847e-05
4.38719e-05
4.40618e-05
4.41152e-05
4.41257e-05
4.41288e-05
4.41316e-05
4.41353e-05
4.41398e-05
4.41454e-05
4.41521e-05
4.41617e-05
4.4165e-05
3.65513e-05
2.64631e-05
2.34193e-05
2.76525e-05
3.43307e-05
3.95266e-05
4.23377e-05
4.35329e-05
4.39555e-05
4.40834e-05
4.41173e-05
4.41239e-05
4.41248e-05
4.41267e-05
4.41295e-05
4.41332e-05
4.41378e-05
4.41429e-05
4.41494e-05
4.41518e-05
4.33326e-05
4.28885e-05
4.31339e-05
4.35522e-05
4.38128e-05
4.39302e-05
4.40302e-05
4.4091e-05
4.41158e-05
4.41227e-05
4.41237e-05
4.41203e-05
4.41208e-05
4.41222e-05
4.41245e-05
4.41274e-05
4.4131e-05
4.41349e-05
4.41396e-05
4.41447e-05
4.41264e-05
4.41165e-05
4.41222e-05
4.41331e-05
4.41374e-05
4.41356e-05
4.41321e-05
4.41285e-05
4.41251e-05
4.41225e-05
4.41209e-05
4.41171e-05
4.41173e-05
4.41184e-05
4.41202e-05
4.41225e-05
4.41255e-05
4.41286e-05
4.4132e-05
4.41344e-05
4.41362e-05
4.41347e-05
4.41346e-05
4.41364e-05
4.41358e-05
4.41335e-05
4.41298e-05
4.41258e-05
4.41222e-05
4.41196e-05
4.41179e-05
4.4114e-05
4.41141e-05
4.41148e-05
4.41163e-05
4.41182e-05
4.41207e-05
4.41233e-05
4.41263e-05
4.41287e-05
4.41304e-05
4.41298e-05
4.41291e-05
4.41296e-05
4.41292e-05
4.41276e-05
4.41247e-05
4.41215e-05
4.41186e-05
4.41163e-05
4.41148e-05
4.41113e-05
4.41111e-05
4.41116e-05
4.41128e-05
4.41143e-05
4.41164e-05
4.41186e-05
4.4121e-05
4.41228e-05
4.41243e-05
4.41243e-05
4.41245e-05
4.41251e-05
4.41247e-05
4.41233e-05
4.41209e-05
4.41182e-05
4.41157e-05
4.41136e-05
4.41121e-05
4.41086e-05
4.41084e-05
4.41087e-05
4.41096e-05
4.41109e-05
4.41126e-05
4.41145e-05
4.41167e-05
4.41184e-05
4.41199e-05
4.41201e-05
4.41202e-05
4.41205e-05
4.412e-05
4.41189e-05
4.4117e-05
4.41148e-05
4.41126e-05
4.41108e-05
4.41094e-05
4.41062e-05
4.41058e-05
4.4106e-05
4.41067e-05
4.41077e-05
4.41092e-05
4.41108e-05
4.41127e-05
4.41141e-05
4.41155e-05
4.4116e-05
4.41164e-05
4.41168e-05
4.41165e-05
4.41155e-05
4.41138e-05
4.41119e-05
4.411e-05
4.41083e-05
4.4107e-05
4.41039e-05
4.41035e-05
4.41035e-05
4.4104e-05
4.41049e-05
4.41062e-05
4.41076e-05
4.41092e-05
4.41106e-05
4.41119e-05
4.41125e-05
4.41128e-05
4.41131e-05
4.41128e-05
4.4112e-05
4.41107e-05
4.41091e-05
4.41074e-05
4.41059e-05
4.41047e-05
4.41017e-05
4.41013e-05
4.41013e-05
4.41016e-05
4.41023e-05
4.41034e-05
4.41046e-05
4.4106e-05
4.41073e-05
4.41085e-05
4.41091e-05
4.41097e-05
4.411e-05
4.41098e-05
4.41091e-05
4.4108e-05
4.41066e-05
4.41051e-05
4.41037e-05
4.41026e-05
4.40998e-05
4.40993e-05
4.40992e-05
4.40995e-05
4.41e-05
4.4101e-05
4.4102e-05
4.41033e-05
4.41044e-05
4.41056e-05
4.41062e-05
4.41067e-05
4.4107e-05
4.41069e-05
4.41064e-05
4.41054e-05
4.41042e-05
4.41029e-05
4.41016e-05
4.41006e-05
4.4098e-05
4.40975e-05
4.40974e-05
4.40975e-05
4.4098e-05
4.40987e-05
4.40997e-05
4.41008e-05
4.41018e-05
4.41029e-05
4.41036e-05
4.41041e-05
4.41045e-05
4.41044e-05
4.4104e-05
4.41031e-05
4.41021e-05
4.41009e-05
4.40997e-05
4.40988e-05
4.40964e-05
4.40959e-05
4.40957e-05
4.40958e-05
4.40961e-05
4.40968e-05
4.40976e-05
4.40986e-05
4.40995e-05
4.41005e-05
4.41012e-05
4.41018e-05
4.41021e-05
4.41021e-05
4.41017e-05
4.4101e-05
4.41001e-05
4.4099e-05
4.4098e-05
4.40971e-05
4.40949e-05
4.40944e-05
4.40942e-05
4.40942e-05
4.40945e-05
4.4095e-05
4.40957e-05
4.40966e-05
4.40975e-05
4.40984e-05
4.40991e-05
4.40997e-05
4.41e-05
4.41001e-05
4.40998e-05
4.40992e-05
4.40983e-05
4.40974e-05
4.40965e-05
4.40956e-05
4.40936e-05
4.40931e-05
4.40928e-05
4.40928e-05
4.4093e-05
4.40935e-05
4.40941e-05
4.40949e-05
4.40957e-05
4.40966e-05
4.40972e-05
4.40978e-05
4.40981e-05
4.40982e-05
4.4098e-05
4.40975e-05
4.40968e-05
4.40959e-05
4.4095e-05
4.40943e-05
4.40924e-05
4.40919e-05
4.40916e-05
4.40915e-05
4.40917e-05
4.40921e-05
4.40926e-05
4.40934e-05
4.40941e-05
4.40949e-05
4.40956e-05
4.40961e-05
4.40965e-05
4.40966e-05
4.40964e-05
4.4096e-05
4.40954e-05
4.40946e-05
4.40938e-05
4.4093e-05
4.40913e-05
4.40909e-05
4.40906e-05
4.40904e-05
4.40906e-05
4.40909e-05
4.40914e-05
4.40921e-05
4.40928e-05
4.40935e-05
4.40941e-05
4.40947e-05
4.4095e-05
4.40952e-05
4.40951e-05
4.40947e-05
4.40941e-05
4.40934e-05
4.40927e-05
4.4092e-05
4.40904e-05
4.40899e-05
4.40896e-05
4.40895e-05
4.40896e-05
4.40898e-05
4.40903e-05
4.40909e-05
4.40915e-05
4.40923e-05
4.40929e-05
4.40934e-05
4.40938e-05
4.40939e-05
4.40939e-05
4.40935e-05
4.4093e-05
4.40924e-05
4.40917e-05
4.4091e-05
4.40896e-05
4.40892e-05
4.40888e-05
4.40887e-05
4.40887e-05
4.4089e-05
4.40893e-05
4.40899e-05
4.40905e-05
4.40913e-05
4.40918e-05
4.40924e-05
4.40927e-05
4.40929e-05
4.40929e-05
4.40926e-05
4.40921e-05
4.40915e-05
4.40909e-05
4.40902e-05
4.40889e-05
4.40885e-05
4.40881e-05
4.4088e-05
4.4088e-05
4.40882e-05
4.40885e-05
4.40891e-05
4.40897e-05
4.40903e-05
4.40909e-05
4.40914e-05
4.40918e-05
4.4092e-05
4.4092e-05
4.40917e-05
4.40913e-05
4.40908e-05
4.40901e-05
4.40895e-05
4.40884e-05
4.4088e-05
4.40876e-05
4.40874e-05
4.40874e-05
4.40876e-05
4.40879e-05
4.40884e-05
4.4089e-05
4.40896e-05
4.40902e-05
4.40907e-05
4.40911e-05
4.40913e-05
4.40913e-05
4.40911e-05
4.40907e-05
4.40902e-05
4.40896e-05
4.4089e-05
4.4088e-05
4.40875e-05
4.40872e-05
4.40869e-05
4.40869e-05
4.40871e-05
4.40873e-05
4.40879e-05
4.40884e-05
4.4089e-05
4.40896e-05
4.40901e-05
4.40905e-05
4.40907e-05
4.40907e-05
4.40905e-05
4.40902e-05
4.40897e-05
4.40891e-05
4.40885e-05
4.40877e-05
4.40873e-05
4.40869e-05
4.40866e-05
4.40866e-05
4.40868e-05
4.4087e-05
4.40875e-05
4.4088e-05
4.40887e-05
4.40892e-05
4.40897e-05
4.40901e-05
4.40903e-05
4.40904e-05
4.40902e-05
4.40899e-05
4.40894e-05
4.40888e-05
4.40883e-05
4.40876e-05
4.40871e-05
4.40867e-05
4.40865e-05
4.40865e-05
4.40866e-05
4.40868e-05
4.40873e-05
4.40878e-05
4.40885e-05
4.40889e-05
4.40895e-05
4.40898e-05
4.40901e-05
4.40902e-05
4.409e-05
4.40897e-05
4.40892e-05
4.40886e-05
4.40881e-05
4.4116e-05
4.41199e-05
4.41146e-05
4.41138e-05
4.412e-05
4.41151e-05
4.41144e-05
4.4123e-05
4.4117e-05
4.41254e-05
4.41183e-05
4.41272e-05
4.41194e-05
4.41277e-05
4.41293e-05
4.41192e-05
4.41253e-05
4.41178e-05
4.41161e-05
4.4122e-05
1.25e-05
1.10235e-05
1.16885e-05
1.43083e-05
1.85107e-05
2.37324e-05
2.92509e-05
3.44924e-05
3.90817e-05
4.2785e-05
4.54169e-05
4.68003e-05
4.68018e-05
4.5387e-05
4.26048e-05
3.85262e-05
3.33483e-05
2.74633e-05
2.15262e-05
1.63724e-05
1.99058e-05
2.49031e-05
3.09551e-05
3.6886e-05
4.18213e-05
4.54483e-05
4.7907e-05
4.94682e-05
5.03626e-05
5.06915e-05
5.02955e-05
4.88239e-05
4.60279e-05
4.19319e-05
3.67849e-05
3.09147e-05
2.50269e-05
2.01756e-05
1.74021e-05
1.73699e-05
3.38917e-05
3.91252e-05
4.31046e-05
4.58118e-05
4.74686e-05
4.834e-05
4.87581e-05
4.89621e-05
4.90972e-05
4.92635e-05
4.88123e-05
4.66516e-05
4.22589e-05