/*--------------------------------*- C++ -*----------------------------------*\
| =========                 |                                                 |
| \\      /  F ield         | OpenFOAM: The Open Source CFD Toolbox           |
|  \\    /   O peration     | Version:  2.4.0                                 |
|   \\  /    A nd           | Web:      www.OpenFOAM.org                      |
|    \\/     M anipulation  |                                                 |
\*---------------------------------------------------------------------------*/
FoamFile
{
    version     2.0;
    format      ascii;
    class       volScalarField;
    location    "110";
    object      nut;
}
// * * * * * * * * * * * * * * * * * * * * * * * * * * * * * * * * * * * * * //

dimensions      [0 2 -1 0 0 0 0];

internalField   nonuniform List<scalar> 
283312
(
6.66162e-07
4.93337e-07
4.63697e-07
5.66839e-07
8.12606e-07
1.21149e-06
1.74121e-06
2.34205e-06
2.94434e-06
3.48637e-06
3.92004e-06
4.20769e-06
4.3202e-06
4.23995e-06
3.963e-06
3.50262e-06
2.90116e-06
2.23229e-06
1.59042e-06
1.06336e-06
1.1478e-06
1.48811e-06
2.03533e-06
2.70479e-06
3.38168e-06
3.96552e-06
4.41083e-06
4.71726e-06
4.90757e-06
5.00458e-06
5.004e-06
4.87032e-06
4.57187e-06
4.11444e-06
3.54031e-06
2.89412e-06
2.24053e-06
1.66948e-06
1.27087e-06
1.1037e-06
2.51543e-06
3.20873e-06
3.82686e-06
4.30516e-06
4.63101e-06
4.82305e-06
4.91955e-06
4.96448e-06
4.98567e-06
4.99907e-06
4.93795e-06
4.68027e-06
4.16697e-06
3.44723e-06
2.63619e-06
1.89425e-06
1.40618e-06
1.25824e-06
1.44728e-06
1.91526e-06
3.6353e-06
4.15862e-06
4.50515e-06
4.70124e-06
4.7961e-06
4.83604e-06
4.85444e-06
4.86646e-06
4.86165e-06
4.85154e-06
4.70247e-06
4.24717e-06
3.48648e-06
2.60951e-06
1.86829e-06
1.44951e-06
1.41669e-06
1.73857e-06
2.31903e-06
3.01219e-06
4.18586e-06
4.49663e-06
4.66466e-06
4.74258e-06
4.77547e-06
4.7899e-06
4.79993e-06
4.81053e-06
4.82676e-06
4.92476e-06
4.85446e-06
4.41035e-06
3.61441e-06
2.71128e-06
1.99582e-06
1.75565e-06
1.98072e-06
2.50266e-06
3.14401e-06
3.74889e-06
4.44611e-06
4.62118e-06
4.70234e-06
4.73441e-06
4.74683e-06
4.75355e-06
4.76139e-06
4.77136e-06
4.77092e-06
4.71394e-06
4.35725e-06
3.81761e-06
2.96591e-06
2.24923e-06
2.00381e-06
2.16424e-06
2.59941e-06
3.16134e-06
3.71821e-06
4.16805e-06
4.55913e-06
4.66018e-06
4.7031e-06
4.71955e-06
4.72711e-06
4.73246e-06
4.73958e-06
4.74888e-06
4.74524e-06
4.47222e-06
3.92358e-06
4.2275e-06
5.19942e-06
4.79974e-06
3.65481e-06
3.19268e-06
3.3255e-06
3.69443e-06
4.08536e-06
4.38811e-06
4.62586e-06
4.6822e-06
4.70344e-06
4.71081e-06
4.71449e-06
4.71806e-06
4.72365e-06
4.73231e-06
4.73243e-06
4.01025e-06
2.9869e-06
2.53829e-06
2.80829e-06
3.16675e-06
3.21694e-06
3.3286e-06
3.62115e-06
3.98345e-06
4.30196e-06
4.51777e-06
4.66915e-06
4.69338e-06
4.70148e-06
4.70453e-06
4.70676e-06
4.70962e-06
4.71395e-06
4.72161e-06
4.72854e-06
3.85605e-06
2.73953e-06
2.04252e-06
1.96276e-06
2.37658e-06
2.90907e-06
3.41337e-06
3.86845e-06
4.23438e-06
4.47959e-06
4.61294e-06
4.68915e-06
4.69695e-06
4.69927e-06
4.70033e-06
4.70155e-06
4.70362e-06
4.70684e-06
4.71328e-06
4.71793e-06
3.71913e-06
2.58146e-06
1.88395e-06
1.78758e-06
2.27086e-06
3.00047e-06
3.66785e-06
4.15378e-06
4.45043e-06
4.60196e-06
4.66663e-06
4.69349e-06
4.696e-06
4.69682e-06
4.69748e-06
4.69838e-06
4.69997e-06
4.7023e-06
4.70741e-06
4.70946e-06
3.60559e-06
2.46132e-06
1.80258e-06
1.80896e-06
2.42992e-06
3.26517e-06
3.94739e-06
4.36472e-06
4.57052e-06
4.65514e-06
4.68473e-06
4.69365e-06
4.69487e-06
4.69528e-06
4.69569e-06
4.69629e-06
4.69739e-06
4.69913e-06
4.70304e-06
4.70429e-06
3.52984e-06
2.416e-06
1.84302e-06
1.94319e-06
2.63957e-06
3.48659e-06
4.1181e-06
4.46447e-06
4.61609e-06
4.67153e-06
4.68892e-06
4.69294e-06
4.6939e-06
4.69425e-06
4.69458e-06
4.69503e-06
4.69578e-06
4.697e-06
4.69971e-06
4.69994e-06
3.47636e-06
2.33261e-06
1.75718e-06
1.94805e-06
2.72464e-06
3.58417e-06
4.18613e-06
4.499e-06
4.62955e-06
4.67534e-06
4.68923e-06
4.69247e-06
4.69335e-06
4.69365e-06
4.69389e-06
4.69418e-06
4.69466e-06
4.6955e-06
4.6973e-06
4.6989e-06
3.45911e-06
2.37593e-06
1.85634e-06
2.05409e-06
2.80634e-06
3.63446e-06
4.21226e-06
4.51043e-06
4.63356e-06
4.67624e-06
4.68906e-06
4.69226e-06
4.69301e-06
4.69326e-06
4.69345e-06
4.69367e-06
4.69398e-06
4.69455e-06
4.69569e-06
4.69705e-06
3.41866e-06
2.25851e-06
1.7884e-06
2.09945e-06
2.89925e-06
3.71199e-06
4.25623e-06
4.52973e-06
4.64041e-06
4.67814e-06
4.68931e-06
4.69242e-06
4.69287e-06
4.69303e-06
4.69316e-06
4.69331e-06
4.69349e-06
4.69372e-06
4.69413e-06
4.69386e-06
3.63818e-06
2.3748e-06
1.95599e-06
2.38069e-06
3.20202e-06
3.93674e-06
4.37884e-06
4.58234e-06
4.65905e-06
4.68372e-06
4.69067e-06
4.69275e-06
4.69282e-06
4.69289e-06
4.69298e-06
4.69309e-06
4.69323e-06
4.6934e-06
4.69364e-06
4.69351e-06
4.56843e-06
4.49576e-06
4.52808e-06
4.59165e-06
4.63532e-06
4.65554e-06
4.67307e-06
4.68468e-06
4.69011e-06
4.69205e-06
4.69261e-06
4.69269e-06
4.69272e-06
4.69277e-06
4.69284e-06
4.69292e-06
4.69301e-06
4.69311e-06
4.69325e-06
4.69344e-06
4.69029e-06
4.68876e-06
4.68978e-06
4.69138e-06
4.69224e-06
4.69239e-06
4.69254e-06
4.69268e-06
4.69273e-06
4.69272e-06
4.6927e-06
4.69262e-06
4.69264e-06
4.69268e-06
4.69273e-06
4.6928e-06
4.69287e-06
4.69295e-06
4.69302e-06
4.69306e-06
4.69304e-06
4.69296e-06
4.69296e-06
4.69303e-06
4.69303e-06
4.69298e-06
4.6929e-06
4.69281e-06
4.69273e-06
4.69267e-06
4.69263e-06
4.69256e-06
4.69257e-06
4.6926e-06
4.69264e-06
4.6927e-06
4.69276e-06
4.69281e-06
4.69287e-06
4.69292e-06
4.69292e-06
4.69287e-06
4.69283e-06
4.69285e-06
4.69286e-06
4.69285e-06
4.69279e-06
4.69272e-06
4.69265e-06
4.6926e-06
4.69257e-06
4.69251e-06
4.69252e-06
4.69254e-06
4.69257e-06
4.69262e-06
4.69266e-06
4.69271e-06
4.69275e-06
4.69278e-06
4.69279e-06
4.69276e-06
4.69275e-06
4.69276e-06
4.69276e-06
4.69274e-06
4.69269e-06
4.69264e-06
4.69259e-06
4.69255e-06
4.69252e-06
4.69246e-06
4.69247e-06
4.69249e-06
4.69251e-06
4.69255e-06
4.69259e-06
4.69263e-06
4.69266e-06
4.69269e-06
4.6927e-06
4.69268e-06
4.69267e-06
4.69267e-06
4.69267e-06
4.69266e-06
4.69262e-06
4.69258e-06
4.69254e-06
4.6925e-06
4.69248e-06
4.69242e-06
4.69242e-06
4.69244e-06
4.69246e-06
4.69249e-06
4.69252e-06
4.69255e-06
4.69258e-06
4.6926e-06
4.69261e-06
4.69261e-06
4.69261e-06
4.69261e-06
4.69261e-06
4.69259e-06
4.69256e-06
4.69253e-06
4.69249e-06
4.69246e-06
4.69244e-06
4.69239e-06
4.69239e-06
4.6924e-06
4.69241e-06
4.69244e-06
4.69246e-06
4.69249e-06
4.69252e-06
4.69254e-06
4.69255e-06
4.69255e-06
4.69255e-06
4.69255e-06
4.69255e-06
4.69254e-06
4.69251e-06
4.69248e-06
4.69245e-06
4.69242e-06
4.6924e-06
4.69235e-06
4.69235e-06
4.69236e-06
4.69237e-06
4.69239e-06
4.69241e-06
4.69243e-06
4.69246e-06
4.69247e-06
4.69249e-06
4.69249e-06
4.69249e-06
4.6925e-06
4.69249e-06
4.69248e-06
4.69246e-06
4.69244e-06
4.69241e-06
4.69239e-06
4.69237e-06
4.69232e-06
4.69232e-06
4.69232e-06
4.69233e-06
4.69235e-06
4.69237e-06
4.69239e-06
4.69241e-06
4.69242e-06
4.69244e-06
4.69244e-06
4.69244e-06
4.69245e-06
4.69245e-06
4.69244e-06
4.69242e-06
4.6924e-06
4.69238e-06
4.69235e-06
4.69234e-06
4.69229e-06
4.69229e-06
4.69229e-06
4.6923e-06
4.69231e-06
4.69233e-06
4.69234e-06
4.69236e-06
4.69238e-06
4.69239e-06
4.6924e-06
4.6924e-06
4.69241e-06
4.6924e-06
4.6924e-06
4.69238e-06
4.69236e-06
4.69234e-06
4.69232e-06
4.69231e-06
4.69227e-06
4.69226e-06
4.69226e-06
4.69227e-06
4.69228e-06
4.69229e-06
4.6923e-06
4.69232e-06
4.69233e-06
4.69235e-06
4.69236e-06
4.69236e-06
4.69237e-06
4.69237e-06
4.69236e-06
4.69235e-06
4.69233e-06
4.69231e-06
4.6923e-06
4.69228e-06
4.69224e-06
4.69224e-06
4.69224e-06
4.69224e-06
4.69225e-06
4.69226e-06
4.69227e-06
4.69229e-06
4.6923e-06
4.69231e-06
4.69232e-06
4.69233e-06
4.69233e-06
4.69233e-06
4.69233e-06
4.69232e-06
4.6923e-06
4.69229e-06
4.69227e-06
4.69225e-06
4.69222e-06
4.69221e-06
4.69221e-06
4.69222e-06
4.69222e-06
4.69223e-06
4.69224e-06
4.69225e-06
4.69227e-06
4.69228e-06
4.69229e-06
4.69229e-06
4.6923e-06
4.6923e-06
4.6923e-06
4.69229e-06
4.69228e-06
4.69226e-06
4.69225e-06
4.69223e-06
4.6922e-06
4.69219e-06
4.69219e-06
4.69219e-06
4.6922e-06
4.69221e-06
4.69222e-06
4.69223e-06
4.69224e-06
4.69225e-06
4.69226e-06
4.69227e-06
4.69227e-06
4.69227e-06
4.69227e-06
4.69226e-06
4.69225e-06
4.69224e-06
4.69223e-06
4.69221e-06
4.69218e-06
4.69218e-06
4.69217e-06
4.69218e-06
4.69218e-06
4.69219e-06
4.69219e-06
4.6922e-06
4.69221e-06
4.69222e-06
4.69223e-06
4.69224e-06
4.69225e-06
4.69225e-06
4.69225e-06
4.69224e-06
4.69223e-06
4.69222e-06
4.69221e-06
4.6922e-06
4.69217e-06
4.69216e-06
4.69216e-06
4.69216e-06
4.69216e-06
4.69217e-06
4.69217e-06
4.69218e-06
4.69219e-06
4.6922e-06
4.69221e-06
4.69222e-06
4.69223e-06
4.69223e-06
4.69223e-06
4.69222e-06
4.69221e-06
4.6922e-06
4.69219e-06
4.69218e-06
4.69216e-06
4.69215e-06
4.69215e-06
4.69214e-06
4.69215e-06
4.69215e-06
4.69216e-06
4.69217e-06
4.69218e-06
4.69218e-06
4.69219e-06
4.6922e-06
4.69221e-06
4.69221e-06
4.69221e-06
4.69221e-06
4.6922e-06
4.69219e-06
4.69218e-06
4.69217e-06
4.69215e-06
4.69214e-06
4.69213e-06
4.69213e-06
4.69213e-06
4.69214e-06
4.69214e-06
4.69215e-06
4.69216e-06
4.69217e-06
4.69218e-06
4.69219e-06
4.69219e-06
4.69219e-06
4.69219e-06
4.69219e-06
4.69218e-06
4.69218e-06
4.69216e-06
4.69215e-06
4.69214e-06
4.69213e-06
4.69213e-06
4.69212e-06
4.69212e-06
4.69213e-06
4.69213e-06
4.69214e-06
4.69215e-06
4.69216e-06
4.69217e-06
4.69217e-06
4.69218e-06
4.69218e-06
4.69218e-06
4.69218e-06
4.69217e-06
4.69217e-06
4.69216e-06
4.69215e-06
4.69213e-06
4.69212e-06
4.69212e-06
4.69212e-06
4.69212e-06
4.69212e-06
4.69212e-06
4.69213e-06
4.69214e-06
4.69215e-06
4.69216e-06
4.69216e-06
4.69217e-06
4.69217e-06
4.69217e-06
4.69217e-06
4.69216e-06
4.69216e-06
4.69215e-06
4.69214e-06
4.69213e-06
4.69212e-06
4.69212e-06
4.69211e-06
4.69211e-06
4.69211e-06
4.69212e-06
4.69212e-06
4.69213e-06
4.69214e-06
4.69215e-06
4.69216e-06
4.69216e-06
4.69217e-06
4.69217e-06
4.69217e-06
4.69216e-06
4.69215e-06
4.69214e-06
4.69214e-06
4.69214e-06
4.69213e-06
4.69212e-06
4.69212e-06
4.69212e-06
4.69212e-06
4.69213e-06
4.69213e-06
4.69214e-06
4.69215e-06
4.69216e-06
4.69217e-06
4.69217e-06
4.69217e-06
4.69218e-06
4.69217e-06
4.69217e-06
4.69216e-06
4.69215e-06
4.69214e-06
4.69433e-06
4.69467e-06
4.69427e-06
4.69422e-06
4.69471e-06
4.69433e-06
4.69426e-06
4.69488e-06
4.69441e-06
4.69499e-06
4.69444e-06
4.69506e-06
4.69447e-06
4.69506e-06
4.6952e-06
4.69444e-06
4.69491e-06
4.69437e-06
4.69426e-06
4.69476e-06
6.34047e-07
4.79505e-07
4.70463e-07
5.9854e-07
8.74042e-07
1.30392e-06
1.85422e-06
2.46229e-06
3.0597e-06
3.58803e-06
4.00235e-06
4.26711e-06
4.35454e-06
4.24855e-06
3.94778e-06
3.46741e-06
2.85199e-06
2.17683e-06
1.53721e-06
1.02023e-06
1.22927e-06
1.60846e-06
2.18151e-06
2.85525e-06
3.515e-06
4.06831e-06
4.48311e-06
4.76406e-06
4.93502e-06
5.0192e-06
5.01225e-06
4.8762e-06
4.57553e-06
4.11344e-06
3.53169e-06
2.87818e-06
2.22231e-06
1.65935e-06
1.28201e-06
1.14802e-06
2.66459e-06
3.34195e-06
3.93122e-06
4.37769e-06
4.67565e-06
4.84645e-06
4.93085e-06
4.96977e-06
4.98929e-06
5.01473e-06
4.98405e-06
4.76354e-06
4.2768e-06
3.5628e-06
2.73676e-06
1.97507e-06
1.48252e-06
1.35111e-06
1.56862e-06
2.06006e-06
3.7546e-06
4.24058e-06
4.55464e-06
4.72805e-06
4.80976e-06
4.84361e-06
4.85979e-06
4.8712e-06
4.86541e-06
4.87726e-06
4.77166e-06
4.35029e-06
3.59337e-06
2.70024e-06
1.95069e-06
1.54259e-06
1.5354e-06
1.88484e-06
2.47795e-06
3.15981e-06
4.27011e-06
4.54564e-06
4.69076e-06
4.75646e-06
4.78388e-06
4.79622e-06
4.80565e-06
4.81631e-06
4.83695e-06
4.99436e-06
5.01606e-06
4.64255e-06
3.86358e-06
2.92776e-06
2.17061e-06
1.92187e-06
2.15681e-06
2.68047e-06
3.30281e-06
3.8712e-06
4.50125e-06
4.65047e-06
4.71787e-06
4.74386e-06
4.75413e-06
4.76019e-06
4.76794e-06
4.77809e-06
4.78336e-06
4.78102e-06
4.49445e-06
4.01493e-06
3.14112e-06
2.40804e-06
2.17207e-06
2.34734e-06
2.78529e-06
3.32949e-06
3.85041e-06
4.25734e-06
4.59652e-06
4.68004e-06
4.71478e-06
4.72801e-06
4.73449e-06
4.7395e-06
4.74655e-06
4.75602e-06
4.75816e-06
4.52514e-06
4.04772e-06
4.63636e-06
5.96769e-06
5.46974e-06
4.06128e-06
3.45622e-06
3.52204e-06
3.84342e-06
4.18919e-06
4.45195e-06
4.6502e-06
4.69585e-06
4.71274e-06
4.71863e-06
4.7219e-06
4.72537e-06
4.73094e-06
4.73964e-06
4.74157e-06
3.99339e-06
2.9663e-06
2.60987e-06
3.04063e-06
3.47204e-06
3.4726e-06
3.52782e-06
3.77714e-06
4.09826e-06
4.37677e-06
4.56064e-06
4.6838e-06
4.70319e-06
4.70961e-06
4.71217e-06
4.71427e-06
4.7171e-06
4.7214e-06
4.72906e-06
4.73596e-06
3.82532e-06
2.69926e-06
2.03064e-06
2.01284e-06
2.48868e-06
3.04638e-06
3.54647e-06
3.97796e-06
4.31072e-06
4.52515e-06
4.63776e-06
4.69888e-06
4.70511e-06
4.70698e-06
4.70794e-06
4.70915e-06
4.71122e-06
4.71443e-06
4.72087e-06
4.72536e-06
3.68423e-06
2.54141e-06
1.86215e-06
1.80145e-06
2.33061e-06
3.08917e-06
3.75614e-06
4.22107e-06
4.49254e-06
4.62562e-06
4.68039e-06
4.70172e-06
4.70379e-06
4.7045e-06
4.70515e-06
4.70605e-06
4.70763e-06
4.70995e-06
4.71506e-06
4.7169e-06
3.56818e-06
2.42343e-06
1.78274e-06
1.81944e-06
2.47547e-06
3.32798e-06
4.00324e-06
4.40267e-06
4.59298e-06
4.66868e-06
4.69433e-06
4.70155e-06
4.7026e-06
4.70299e-06
4.7034e-06
4.704e-06
4.7051e-06
4.70683e-06
4.71075e-06
4.71179e-06
3.49038e-06
2.3817e-06
1.82761e-06
1.95391e-06
2.67742e-06
3.53366e-06
4.15642e-06
4.48932e-06
4.63132e-06
4.68195e-06
4.69744e-06
4.70081e-06
4.70165e-06
4.70198e-06
4.70231e-06
4.70276e-06
4.70351e-06
4.70473e-06
4.70744e-06
4.70749e-06
3.43651e-06
2.298e-06
1.74193e-06
1.95932e-06
2.75944e-06
3.62489e-06
4.21816e-06
4.51975e-06
4.6428e-06
4.68501e-06
4.69753e-06
4.70034e-06
4.70111e-06
4.70139e-06
4.70163e-06
4.70193e-06
4.70241e-06
4.70325e-06
4.70505e-06
4.70654e-06
3.41968e-06
2.34617e-06
1.84432e-06
2.06539e-06
2.83905e-06
3.67263e-06
4.24237e-06
4.53009e-06
4.64631e-06
4.68573e-06
4.69732e-06
4.70012e-06
4.70078e-06
4.70101e-06
4.7012e-06
4.70142e-06
4.70173e-06
4.70231e-06
4.70345e-06
4.70474e-06
3.37773e-06
2.22538e-06
1.77719e-06
2.1137e-06
2.93342e-06
3.7495e-06
4.285e-06
4.54838e-06
4.65265e-06
4.68743e-06
4.69751e-06
4.70024e-06
4.70063e-06
4.70078e-06
4.70092e-06
4.70106e-06
4.70124e-06
4.70148e-06
4.70189e-06
4.70163e-06
3.60219e-06
2.3294e-06
1.94001e-06
2.3995e-06
3.24046e-06
3.97343e-06
4.40441e-06
4.59842e-06
4.66997e-06
4.69248e-06
4.6987e-06
4.7005e-06
4.70056e-06
4.70063e-06
4.70073e-06
4.70084e-06
4.70098e-06
4.70115e-06
4.70139e-06
4.70127e-06
4.57111e-06
4.5008e-06
4.5375e-06
4.60235e-06
4.6451e-06
4.66497e-06
4.68211e-06
4.69313e-06
4.69815e-06
4.69989e-06
4.70038e-06
4.70043e-06
4.70046e-06
4.70051e-06
4.70059e-06
4.70067e-06
4.70077e-06
4.70087e-06
4.70101e-06
4.7012e-06
4.69794e-06
4.6965e-06
4.69761e-06
4.69922e-06
4.70004e-06
4.70017e-06
4.70031e-06
4.70043e-06
4.70047e-06
4.70046e-06
4.70044e-06
4.70036e-06
4.70038e-06
4.70042e-06
4.70048e-06
4.70055e-06
4.70063e-06
4.7007e-06
4.70077e-06
4.70082e-06
4.7008e-06
4.70071e-06
4.70072e-06
4.70078e-06
4.70077e-06
4.70072e-06
4.70064e-06
4.70055e-06
4.70047e-06
4.70041e-06
4.70037e-06
4.7003e-06
4.70032e-06
4.70035e-06
4.70039e-06
4.70045e-06
4.70051e-06
4.70057e-06
4.70063e-06
4.70068e-06
4.70067e-06
4.70062e-06
4.70058e-06
4.7006e-06
4.70061e-06
4.70059e-06
4.70053e-06
4.70046e-06
4.70039e-06
4.70034e-06
4.70031e-06
4.70025e-06
4.70026e-06
4.70029e-06
4.70032e-06
4.70037e-06
4.70041e-06
4.70046e-06
4.7005e-06
4.70053e-06
4.70054e-06
4.70051e-06
4.7005e-06
4.70051e-06
4.7005e-06
4.70048e-06
4.70043e-06
4.70038e-06
4.70033e-06
4.70029e-06
4.70026e-06
4.7002e-06
4.70021e-06
4.70023e-06
4.70026e-06
4.70029e-06
4.70034e-06
4.70037e-06
4.70041e-06
4.70044e-06
4.70045e-06
4.70043e-06
4.70042e-06
4.70042e-06
4.70042e-06
4.7004e-06
4.70036e-06
4.70032e-06
4.70028e-06
4.70024e-06
4.70022e-06
4.70016e-06
4.70017e-06
4.70018e-06
4.7002e-06
4.70023e-06
4.70027e-06
4.7003e-06
4.70033e-06
4.70035e-06
4.70036e-06
4.70036e-06
4.70035e-06
4.70036e-06
4.70035e-06
4.70033e-06
4.7003e-06
4.70027e-06
4.70023e-06
4.7002e-06
4.70018e-06
4.70013e-06
4.70013e-06
4.70014e-06
4.70016e-06
4.70018e-06
4.70021e-06
4.70024e-06
4.70026e-06
4.70028e-06
4.7003e-06
4.7003e-06
4.70029e-06
4.70029e-06
4.70029e-06
4.70028e-06
4.70025e-06
4.70022e-06
4.70019e-06
4.70016e-06
4.70014e-06
4.70009e-06
4.70009e-06
4.7001e-06
4.70011e-06
4.70013e-06
4.70015e-06
4.70018e-06
4.7002e-06
4.70022e-06
4.70023e-06
4.70024e-06
4.70024e-06
4.70024e-06
4.70024e-06
4.70022e-06
4.7002e-06
4.70018e-06
4.70015e-06
4.70013e-06
4.70011e-06
4.70006e-06
4.70006e-06
4.70006e-06
4.70007e-06
4.70009e-06
4.70011e-06
4.70013e-06
4.70015e-06
4.70017e-06
4.70018e-06
4.70019e-06
4.70019e-06
4.70019e-06
4.70019e-06
4.70018e-06
4.70016e-06
4.70014e-06
4.70011e-06
4.70009e-06
4.70007e-06
4.70003e-06
4.70003e-06
4.70003e-06
4.70004e-06
4.70005e-06
4.70007e-06
4.70008e-06
4.7001e-06
4.70012e-06
4.70013e-06
4.70014e-06
4.70014e-06
4.70015e-06
4.70015e-06
4.70014e-06
4.70012e-06
4.7001e-06
4.70008e-06
4.70006e-06
4.70004e-06
4.7e-06
4.7e-06
4.7e-06
4.70001e-06
4.70002e-06
4.70003e-06
4.70005e-06
4.70006e-06
4.70008e-06
4.70009e-06
4.7001e-06
4.7001e-06
4.70011e-06
4.70011e-06
4.7001e-06
4.70009e-06
4.70007e-06
4.70005e-06
4.70003e-06
4.70002e-06
4.69998e-06
4.69997e-06
4.69997e-06
4.69998e-06
4.69999e-06
4.7e-06
4.70001e-06
4.70003e-06
4.70004e-06
4.70005e-06
4.70006e-06
4.70007e-06
4.70007e-06
4.70007e-06
4.70007e-06
4.70005e-06
4.70004e-06
4.70002e-06
4.70001e-06
4.69999e-06
4.69996e-06
4.69995e-06
4.69995e-06
4.69995e-06
4.69996e-06
4.69997e-06
4.69998e-06
4.69999e-06
4.70001e-06
4.70002e-06
4.70003e-06
4.70003e-06
4.70004e-06
4.70004e-06
4.70004e-06
4.70003e-06
4.70001e-06
4.7e-06
4.69998e-06
4.69997e-06
4.69994e-06
4.69993e-06
4.69993e-06
4.69993e-06
4.69994e-06
4.69994e-06
4.69995e-06
4.69997e-06
4.69998e-06
4.69999e-06
4.7e-06
4.7e-06
4.70001e-06
4.70001e-06
4.70001e-06
4.7e-06
4.69999e-06
4.69998e-06
4.69996e-06
4.69995e-06
4.69992e-06
4.69991e-06
4.69991e-06
4.69991e-06
4.69992e-06
4.69992e-06
4.69993e-06
4.69994e-06
4.69995e-06
4.69996e-06
4.69997e-06
4.69998e-06
4.69998e-06
4.69999e-06
4.69998e-06
4.69998e-06
4.69997e-06
4.69996e-06
4.69994e-06
4.69993e-06
4.6999e-06
4.6999e-06
4.69989e-06
4.69989e-06
4.6999e-06
4.6999e-06
4.69991e-06
4.69992e-06
4.69993e-06
4.69994e-06
4.69995e-06
4.69996e-06
4.69996e-06
4.69997e-06
4.69996e-06
4.69996e-06
4.69995e-06
4.69994e-06
4.69993e-06
4.69992e-06
4.69989e-06
4.69988e-06
4.69988e-06
4.69988e-06
4.69988e-06
4.69989e-06
4.69989e-06
4.6999e-06
4.69991e-06
4.69992e-06
4.69993e-06
4.69994e-06
4.69994e-06
4.69995e-06
4.69995e-06
4.69994e-06
4.69993e-06
4.69992e-06
4.69991e-06
4.6999e-06
4.69988e-06
4.69987e-06
4.69987e-06
4.69987e-06
4.69987e-06
4.69987e-06
4.69988e-06
4.69989e-06
4.6999e-06
4.69991e-06
4.69992e-06
4.69992e-06
4.69993e-06
4.69993e-06
4.69993e-06
4.69993e-06
4.69992e-06
4.69991e-06
4.6999e-06
4.69989e-06
4.69987e-06
4.69987e-06
4.69986e-06
4.69986e-06
4.69986e-06
4.69986e-06
4.69987e-06
4.69988e-06
4.69988e-06
4.69989e-06
4.6999e-06
4.69991e-06
4.69992e-06
4.69992e-06
4.69992e-06
4.69992e-06
4.69991e-06
4.6999e-06
4.69989e-06
4.69988e-06
4.69986e-06
4.69986e-06
4.69985e-06
4.69985e-06
4.69985e-06
4.69985e-06
4.69986e-06
4.69987e-06
4.69987e-06
4.69988e-06
4.69989e-06
4.6999e-06
4.69991e-06
4.69991e-06
4.69991e-06
4.69991e-06
4.6999e-06
4.69989e-06
4.69988e-06
4.69987e-06
4.69986e-06
4.69985e-06
4.69985e-06
4.69985e-06
4.69985e-06
4.69985e-06
4.69985e-06
4.69986e-06
4.69987e-06
4.69988e-06
4.69989e-06
4.69989e-06
4.6999e-06
4.6999e-06
4.6999e-06
4.6999e-06
4.6999e-06
4.69989e-06
4.69988e-06
4.69987e-06
4.69987e-06
4.69986e-06
4.69986e-06
4.69986e-06
4.69985e-06
4.69986e-06
4.69986e-06
4.69987e-06
4.69988e-06
4.69989e-06
4.69989e-06
4.6999e-06
4.69991e-06
4.69991e-06
4.69991e-06
4.69991e-06
4.6999e-06
4.69989e-06
4.69989e-06
4.69988e-06
4.70199e-06
4.70229e-06
4.70193e-06
4.70189e-06
4.70233e-06
4.70199e-06
4.70193e-06
4.7025e-06
4.70206e-06
4.7026e-06
4.70209e-06
4.70266e-06
4.70212e-06
4.70267e-06
4.70278e-06
4.70209e-06
4.70251e-06
4.70202e-06
4.70193e-06
4.70238e-06
6.12296e-07
4.772e-07
4.90961e-07
6.47142e-07
9.55279e-07
1.41524e-06
1.98374e-06
2.59588e-06
3.18493e-06
3.69619e-06
4.08831e-06
4.32801e-06
4.38905e-06
4.25706e-06
3.93301e-06
3.43416e-06
2.80682e-06
2.12744e-06
1.49185e-06
9.86339e-07
1.32307e-06
1.73969e-06
2.33422e-06
3.00706e-06
3.64557e-06
4.16826e-06
4.55274e-06
4.80855e-06
4.9605e-06
5.03231e-06
5.0199e-06
4.88257e-06
4.58018e-06
4.11297e-06
3.52283e-06
2.86168e-06
2.2047e-06
1.6526e-06
1.30013e-06
1.20261e-06
2.81352e-06
3.47214e-06
4.03136e-06
4.44605e-06
4.71686e-06
4.86767e-06
4.94108e-06
4.97465e-06
4.99272e-06
5.032e-06
5.03608e-06
4.85744e-06
4.39974e-06
3.69073e-06
2.84582e-06
2.06124e-06
1.56379e-06
1.44991e-06
1.69554e-06
2.2077e-06
3.86726e-06
4.31662e-06
4.59983e-06
4.75224e-06
4.82215e-06
4.85075e-06
4.86508e-06
4.87603e-06
4.86866e-06
4.90432e-06
4.84541e-06
4.45759e-06
3.69953e-06
2.78566e-06
2.02806e-06
1.63343e-06
1.65401e-06
2.03044e-06
2.63352e-06
3.30154e-06
4.3467e-06
4.5896e-06
4.71413e-06
4.76911e-06
4.7919e-06
4.80251e-06
4.81149e-06
4.82224e-06
4.84681e-06
5.07031e-06
5.19356e-06
4.89412e-06
4.12711e-06
3.1469e-06
2.34071e-06
2.08273e-06
2.32696e-06
2.85046e-06
3.45213e-06
3.98412e-06
4.55011e-06
4.67644e-06
4.73197e-06
4.75287e-06
4.76138e-06
4.76693e-06
4.77462e-06
4.78496e-06
4.79567e-06
4.85462e-06
4.64452e-06
4.22348e-06
3.31237e-06
2.55781e-06
2.3301e-06
2.51996e-06
2.95979e-06
3.48542e-06
3.97093e-06
4.33733e-06
4.62939e-06
4.69783e-06
4.7257e-06
4.73631e-06
4.74192e-06
4.74667e-06
4.75368e-06
4.76328e-06
4.77107e-06
4.58461e-06
4.19005e-06
5.11456e-06
6.84362e-06
6.19488e-06
4.47725e-06
3.71267e-06
3.70648e-06
3.97966e-06
4.28212e-06
4.50819e-06
4.67176e-06
4.70845e-06
4.72177e-06
4.72648e-06
4.72943e-06
4.73282e-06
4.73838e-06
4.74711e-06
4.75072e-06
3.97404e-06
2.94313e-06
2.69158e-06
3.30002e-06
3.79441e-06
3.72591e-06
3.71614e-06
3.92021e-06
4.20124e-06
4.44271e-06
4.59815e-06
4.69728e-06
4.71268e-06
4.71775e-06
4.71992e-06
4.72192e-06
4.72473e-06
4.729e-06
4.73666e-06
4.74351e-06
3.7928e-06
2.65793e-06
2.01997e-06
2.06684e-06
2.60086e-06
3.1773e-06
3.66963e-06
4.07707e-06
4.37853e-06
4.56524e-06
4.65982e-06
4.70834e-06
4.71331e-06
4.71481e-06
4.7157e-06
4.7169e-06
4.71898e-06
4.72216e-06
4.72861e-06
4.73293e-06
3.64772e-06
2.50118e-06
1.84094e-06
1.81604e-06
2.38916e-06
3.17347e-06
3.83798e-06
4.28214e-06
4.53028e-06
4.64696e-06
4.69324e-06
4.71e-06
4.71171e-06
4.71234e-06
4.71297e-06
4.71387e-06
4.71545e-06
4.71775e-06
4.72287e-06
4.72448e-06
3.52928e-06
2.3857e-06
1.76352e-06
1.83058e-06
2.52082e-06
3.38887e-06
4.05615e-06
4.43804e-06
4.61389e-06
4.68157e-06
4.70379e-06
4.70958e-06
4.71048e-06
4.71084e-06
4.71126e-06
4.71187e-06
4.71297e-06
4.71469e-06
4.7186e-06
4.71943e-06
3.44945e-06
2.34799e-06
1.81298e-06
1.96552e-06
2.71589e-06
3.58043e-06
4.1938e-06
4.5133e-06
4.64609e-06
4.69224e-06
4.70601e-06
4.70881e-06
4.70956e-06
4.70987e-06
4.7102e-06
4.71065e-06
4.7114e-06
4.71261e-06
4.71532e-06
4.71519e-06
3.39528e-06
2.26396e-06
1.72751e-06
1.9716e-06
2.79521e-06
3.66591e-06
4.24992e-06
4.54014e-06
4.65587e-06
4.69467e-06
4.70593e-06
4.70835e-06
4.70903e-06
4.70929e-06
4.70953e-06
4.70983e-06
4.71031e-06
4.71116e-06
4.71295e-06
4.71434e-06
3.379e-06
2.31721e-06
1.83306e-06
2.07768e-06
2.87282e-06
3.71127e-06
4.27238e-06
4.54951e-06
4.65895e-06
4.69524e-06
4.70568e-06
4.70812e-06
4.7087e-06
4.70892e-06
4.70911e-06
4.70933e-06
4.70964e-06
4.71022e-06
4.71135e-06
4.71259e-06
3.33549e-06
2.19296e-06
1.76686e-06
2.12899e-06
2.96862e-06
3.78745e-06
4.31365e-06
4.5668e-06
4.66479e-06
4.69675e-06
4.70582e-06
4.7082e-06
4.70855e-06
4.70869e-06
4.70882e-06
4.70897e-06
4.70916e-06
4.70939e-06
4.70981e-06
4.70956e-06
3.56471e-06
2.28382e-06
1.92517e-06
2.41992e-06
3.28001e-06
4.0103e-06
4.42972e-06
4.61428e-06
4.68083e-06
4.70132e-06
4.70685e-06
4.7084e-06
4.70847e-06
4.70854e-06
4.70864e-06
4.70875e-06
4.7089e-06
4.70907e-06
4.70931e-06
4.70918e-06
4.57374e-06
4.50611e-06
4.54726e-06
4.61327e-06
4.655e-06
4.67454e-06
4.69127e-06
4.7017e-06
4.70632e-06
4.70787e-06
4.7083e-06
4.70833e-06
4.70836e-06
4.70842e-06
4.70849e-06
4.70858e-06
4.70868e-06
4.70878e-06
4.70892e-06
4.70911e-06
4.70574e-06
4.7044e-06
4.70561e-06
4.70721e-06
4.70799e-06
4.70811e-06
4.70824e-06
4.70835e-06
4.70838e-06
4.70836e-06
4.70834e-06
4.70826e-06
4.70828e-06
4.70833e-06
4.70839e-06
4.70846e-06
4.70854e-06
4.70861e-06
4.70869e-06
4.70873e-06
4.70871e-06
4.70862e-06
4.70863e-06
4.70869e-06
4.70867e-06
4.70861e-06
4.70853e-06
4.70844e-06
4.70836e-06
4.7083e-06
4.70827e-06
4.7082e-06
4.70822e-06
4.70825e-06
4.7083e-06
4.70835e-06
4.70842e-06
4.70848e-06
4.70854e-06
4.70859e-06
4.70858e-06
4.70853e-06
4.70849e-06
4.70851e-06
4.70851e-06
4.70849e-06
4.70842e-06
4.70835e-06
4.70828e-06
4.70824e-06
4.70821e-06
4.70815e-06
4.70816e-06
4.70819e-06
4.70823e-06
4.70827e-06
4.70832e-06
4.70837e-06
4.70841e-06
4.70844e-06
4.70845e-06
4.70842e-06
4.70841e-06
4.70842e-06
4.70841e-06
4.70838e-06
4.70833e-06
4.70828e-06
4.70823e-06
4.70819e-06
4.70816e-06
4.7081e-06
4.70811e-06
4.70813e-06
4.70816e-06
4.7082e-06
4.70824e-06
4.70828e-06
4.70832e-06
4.70835e-06
4.70835e-06
4.70834e-06
4.70832e-06
4.70832e-06
4.70832e-06
4.7083e-06
4.70826e-06
4.70822e-06
4.70817e-06
4.70814e-06
4.70812e-06
4.70806e-06
4.70807e-06
4.70808e-06
4.70811e-06
4.70814e-06
4.70817e-06
4.7082e-06
4.70824e-06
4.70826e-06
4.70827e-06
4.70826e-06
4.70826e-06
4.70826e-06
4.70825e-06
4.70823e-06
4.7082e-06
4.70816e-06
4.70813e-06
4.7081e-06
4.70808e-06
4.70802e-06
4.70802e-06
4.70804e-06
4.70806e-06
4.70808e-06
4.70811e-06
4.70814e-06
4.70817e-06
4.70819e-06
4.7082e-06
4.7082e-06
4.7082e-06
4.7082e-06
4.70819e-06
4.70818e-06
4.70815e-06
4.70812e-06
4.70808e-06
4.70806e-06
4.70804e-06
4.70799e-06
4.70799e-06
4.708e-06
4.70801e-06
4.70803e-06
4.70806e-06
4.70808e-06
4.7081e-06
4.70812e-06
4.70814e-06
4.70814e-06
4.70814e-06
4.70814e-06
4.70814e-06
4.70812e-06
4.7081e-06
4.70807e-06
4.70805e-06
4.70802e-06
4.708e-06
4.70795e-06
4.70795e-06
4.70796e-06
4.70797e-06
4.70799e-06
4.70801e-06
4.70803e-06
4.70805e-06
4.70807e-06
4.70808e-06
4.70809e-06
4.70809e-06
4.70809e-06
4.70809e-06
4.70808e-06
4.70806e-06
4.70803e-06
4.70801e-06
4.70799e-06
4.70797e-06
4.70792e-06
4.70792e-06
4.70793e-06
4.70793e-06
4.70795e-06
4.70797e-06
4.70798e-06
4.708e-06
4.70802e-06
4.70803e-06
4.70804e-06
4.70804e-06
4.70805e-06
4.70804e-06
4.70803e-06
4.70802e-06
4.708e-06
4.70798e-06
4.70796e-06
4.70794e-06
4.7079e-06
4.70789e-06
4.7079e-06
4.7079e-06
4.70791e-06
4.70793e-06
4.70794e-06
4.70796e-06
4.70798e-06
4.70799e-06
4.708e-06
4.708e-06
4.708e-06
4.708e-06
4.708e-06
4.70798e-06
4.70796e-06
4.70795e-06
4.70793e-06
4.70791e-06
4.70787e-06
4.70787e-06
4.70787e-06
4.70787e-06
4.70788e-06
4.70789e-06
4.70791e-06
4.70792e-06
4.70794e-06
4.70795e-06
4.70796e-06
4.70796e-06
4.70797e-06
4.70797e-06
4.70796e-06
4.70795e-06
4.70793e-06
4.70792e-06
4.7079e-06
4.70789e-06
4.70785e-06
4.70784e-06
4.70784e-06
4.70785e-06
4.70786e-06
4.70787e-06
4.70788e-06
4.70789e-06
4.7079e-06
4.70792e-06
4.70792e-06
4.70793e-06
4.70793e-06
4.70794e-06
4.70793e-06
4.70792e-06
4.70791e-06
4.70789e-06
4.70788e-06
4.70786e-06
4.70783e-06
4.70782e-06
4.70782e-06
4.70783e-06
4.70783e-06
4.70784e-06
4.70785e-06
4.70786e-06
4.70787e-06
4.70789e-06
4.70789e-06
4.7079e-06
4.70791e-06
4.70791e-06
4.7079e-06
4.70789e-06
4.70788e-06
4.70787e-06
4.70785e-06
4.70784e-06
4.70781e-06
4.70781e-06
4.7078e-06
4.70781e-06
4.70781e-06
4.70782e-06
4.70783e-06
4.70784e-06
4.70785e-06
4.70786e-06
4.70787e-06
4.70788e-06
4.70788e-06
4.70788e-06
4.70788e-06
4.70787e-06
4.70786e-06
4.70785e-06
4.70784e-06
4.70782e-06
4.7078e-06
4.70779e-06
4.70779e-06
4.70779e-06
4.70779e-06
4.7078e-06
4.70781e-06
4.70782e-06
4.70783e-06
4.70784e-06
4.70784e-06
4.70785e-06
4.70786e-06
4.70786e-06
4.70786e-06
4.70785e-06
4.70784e-06
4.70783e-06
4.70782e-06
4.70781e-06
4.70778e-06
4.70778e-06
4.70777e-06
4.70777e-06
4.70778e-06
4.70778e-06
4.70779e-06
4.7078e-06
4.70781e-06
4.70782e-06
4.70783e-06
4.70783e-06
4.70784e-06
4.70784e-06
4.70784e-06
4.70783e-06
4.70783e-06
4.70782e-06
4.7078e-06
4.70779e-06
4.70777e-06
4.70777e-06
4.70776e-06
4.70776e-06
4.70776e-06
4.70777e-06
4.70777e-06
4.70778e-06
4.70779e-06
4.7078e-06
4.70781e-06
4.70782e-06
4.70782e-06
4.70783e-06
4.70782e-06
4.70782e-06
4.70781e-06
4.7078e-06
4.70779e-06
4.70778e-06
4.70776e-06
4.70776e-06
4.70775e-06
4.70775e-06
4.70775e-06
4.70776e-06
4.70776e-06
4.70777e-06
4.70778e-06
4.70779e-06
4.7078e-06
4.7078e-06
4.70781e-06
4.70781e-06
4.70781e-06
4.70781e-06
4.7078e-06
4.70779e-06
4.70778e-06
4.70777e-06
4.70776e-06
4.70775e-06
4.70775e-06
4.70774e-06
4.70774e-06
4.70775e-06
4.70775e-06
4.70776e-06
4.70777e-06
4.70778e-06
4.70779e-06
4.70779e-06
4.7078e-06
4.7078e-06
4.7078e-06
4.7078e-06
4.70779e-06
4.70778e-06
4.70777e-06
4.70777e-06
4.70775e-06
4.70775e-06
4.70774e-06
4.70774e-06
4.70774e-06
4.70774e-06
4.70775e-06
4.70775e-06
4.70776e-06
4.70777e-06
4.70778e-06
4.70779e-06
4.70779e-06
4.7078e-06
4.7078e-06
4.70779e-06
4.70779e-06
4.70778e-06
4.70777e-06
4.70776e-06
4.70776e-06
4.70775e-06
4.70775e-06
4.70775e-06
4.70775e-06
4.70775e-06
4.70775e-06
4.70776e-06
4.70777e-06
4.70778e-06
4.70779e-06
4.70779e-06
4.7078e-06
4.7078e-06
4.7078e-06
4.7078e-06
4.70779e-06
4.70779e-06
4.70778e-06
4.70777e-06
4.7098e-06
4.71007e-06
4.70974e-06
4.70971e-06
4.71012e-06
4.7098e-06
4.70975e-06
4.71028e-06
4.70988e-06
4.71037e-06
4.7099e-06
4.71043e-06
4.70993e-06
4.71043e-06
4.71053e-06
4.70989e-06
4.71028e-06
4.70983e-06
4.70976e-06
4.71016e-06
6.00895e-07
4.86876e-07
5.26276e-07
7.14e-07
1.05718e-06
1.54567e-06
2.12944e-06
2.74179e-06
3.31854e-06
3.80928e-06
4.17644e-06
4.38918e-06
4.42282e-06
4.26484e-06
3.91843e-06
3.40283e-06
2.76563e-06
2.084e-06
1.45409e-06
9.61469e-07
1.42906e-06
1.88137e-06
2.4929e-06
3.15984e-06
3.77336e-06
4.2649e-06
4.61905e-06
4.85025e-06
4.98369e-06
5.04366e-06
5.02681e-06
4.88942e-06
4.5859e-06
4.11303e-06
3.51344e-06
2.84414e-06
2.18717e-06
1.6488e-06
1.325e-06
1.26736e-06
2.96147e-06
3.59878e-06
4.12693e-06
4.51006e-06
4.75461e-06
4.88692e-06
4.95039e-06
4.9792e-06
4.99591e-06
5.0509e-06
5.09448e-06
4.96304e-06
4.53729e-06
3.83227e-06