/*--------------------------------*- C++ -*----------------------------------*\
| =========                 |                                                 |
| \\      /  F ield         | OpenFOAM: The Open Source CFD Toolbox           |
|  \\    /   O peration     | Version:  2.4.0                                 |
|   \\  /    A nd           | Web:      www.OpenFOAM.org                      |
|    \\/     M anipulation  |                                                 |
\*---------------------------------------------------------------------------*/
FoamFile
{
    version     2.0;
    format      ascii;
    class       volScalarField;
    location    "110";
    object      p;
}
// * * * * * * * * * * * * * * * * * * * * * * * * * * * * * * * * * * * * * //

dimensions      [0 2 -2 0 0 0 0];

internalField   nonuniform List<scalar> 
283312
(
-0.00617889
-0.00624759
-0.00649949
-0.0068507
-0.00721086
-0.00750947
-0.00773923
-0.00789631
-0.00801475
-0.00811951
-0.00823182
-0.00833897
-0.0084089
-0.00838568
-0.00823326
-0.00795781
-0.00757257
-0.00711438
-0.00666601
-0.0063279
0.00213789
0.00163036
0.00120036
0.000930032
0.000831451
0.000898629
0.0010446
0.00118913
0.00130367
0.0013958
0.00146788
0.00155092
0.00168113
0.00188123
0.00216308
0.00252855
0.00284355
0.00299391
0.00291557
0.00260661
-0.00230398
-0.00214927
-0.00192239
-0.0016797
-0.00148554
-0.00138681
-0.00136774
-0.00137317
-0.00142089
-0.00146002
-0.0014866
-0.00146289
-0.00139331
-0.00130189
-0.00126172
-0.00137481
-0.00162087
-0.00191592
-0.00217679
-0.00231769
0.00145627
0.00163266
0.00177863
0.00189436
0.00197692
0.00204584
0.00205263
0.00205982
0.002028
0.00204176
0.0020635
0.00211207
0.00213219
0.00207601
0.00193338
0.00168598
0.00143833
0.00126337
0.00121887
0.00130151
-0.000745346
-0.000545117
-0.000427773
-0.000349609
-0.000346702
-0.000334553
-0.000346494
-0.000332397
-0.000360712
-0.000333228
-0.000335992
-0.00039254
-0.000587926
-0.000929704
-0.00137153
-0.00171383
-0.00179354
-0.00163703
-0.00133939
-0.00101528
0.00118593
0.00129575
0.00135371
0.00139912
0.00141264
0.00141995
0.0013857
0.00137328
0.00131101
0.00132505
0.00127538
0.00114771
0.000849903
0.000464871
0.000188451
0.00012494
0.000268908
0.000526011
0.000800152
0.00102808
-0.000153921
-0.000114257
-0.000107383
-0.000101566
-0.000113305
-8.8472e-05
-8.89709e-05
-6.01451e-05
-8.933e-05
-5.9754e-05
-0.000166138
-0.000434407
-0.000866768
-0.0012953
-0.00143649
-0.00127782
-0.000955167
-0.000634812
-0.00038836
-0.00023343
0.000749398
0.000798087
0.000821402
0.000846069
0.000834638
0.000831193
0.000794136
0.000774335
0.000708257
0.000703935
0.000563067
0.00026334
-0.000149838
-0.000363247
-0.000323608
-9.56833e-05
0.000189657
0.000418124
0.000581221
0.000685022
-6.43397e-06
-4.31222e-06
-1.49314e-05
-1.63431e-05
-1.78805e-05
3.79097e-06
5.57833e-06
2.54586e-05
-7.38998e-07
7.85929e-06
-0.0001696
-0.00056078
-0.000962603
-0.00106419
-0.000869673
-0.000587478
-0.000324836
-0.000159334
-6.19236e-05
-1.88107e-05
0.000430917
0.000455391
0.00046616
0.000476797
0.000464186
0.000455981
0.000426194
0.000404476
0.000353519
0.000340713
0.000172749
-0.000184945
-0.0004377
-0.000436614
-0.000218801
4.63784e-07
0.000183459
0.00028935
0.000360473
0.000402086
3.74658e-05
3.59843e-05
2.76025e-05
2.97591e-05
2.91236e-05
4.41109e-05
4.4655e-05
6.10779e-05
4.53046e-05
7.24419e-05
-9.62327e-05
-0.000518986
-0.000703267
-0.0006307
-0.000396597
-0.000214497
-7.67379e-05
-1.24575e-05
2.5356e-05
3.65211e-05
0.000242946
0.000254913
0.00025893
0.000262337
0.000251496
0.00024295
0.000219942
0.000202776
0.00016899
0.000189422
5.84209e-05
-0.000220482
-0.000329863
-0.000229912
-5.40803e-05
5.9655e-05
0.000145708
0.000183078
0.000213528
0.000229371
4.89395e-05
4.94751e-05
4.5442e-05
4.92299e-05
4.83495e-05
5.97709e-05
5.97005e-05
8.32924e-05
8.06852e-05
0.000187036
7.58001e-05
-0.000270728
-0.000358478
-0.000297009
-0.000154078
-7.22141e-05
-3.61961e-06
2.14867e-05
4.20341e-05
4.69202e-05
0.000138932
0.00014444
0.000144881
0.000145464
0.000136078
0.00012856
0.000109865
9.77515e-05
7.77842e-05
0.000134695
9.50419e-05
-5.40779e-05
-0.000114021
-6.07039e-05
2.48678e-05
6.23478e-05
0.00010049
0.000111066
0.00012632
0.000132145
4.70929e-05
4.92762e-05
4.81361e-05
5.19852e-05
5.11007e-05
6.03168e-05
6.09013e-05
8.94502e-05
0.000101523
0.000276148
0.000263844
-5.35095e-05
-0.000142647
-0.000146746
-8.27126e-05
-4.23101e-05
3.95051e-06
2.039e-05
3.79473e-05
4.30037e-05
8.32061e-05
8.57462e-05
8.47705e-05
8.42301e-05
7.61823e-05
6.95323e-05
5.35313e-05
4.2935e-05
2.5118e-05
8.1801e-05
0.00019284
3.54605e-05
-2.22626e-05
-2.44135e-05
1.48129e-05
2.82862e-05
5.69056e-05
6.41642e-05
7.60922e-05
7.91236e-05
4.08209e-05
4.34077e-05
4.35775e-05
4.66577e-05
4.58071e-05
5.20104e-05
5.21065e-05
6.86368e-05
6.48944e-05
0.000103752
6.38944e-05
-3.29828e-05
-4.34147e-05
-5.91318e-05
-2.62352e-05
-1.76846e-05
8.86252e-06
1.78433e-05
3.17069e-05
3.62157e-05
5.40712e-05
5.51518e-05
5.3863e-05
5.29893e-05
4.65146e-05
4.08694e-05
2.84092e-05
1.81843e-05
6.42581e-06
5.87952e-06
3.82243e-05
7.80697e-06
1.61174e-05
1.27293e-05
3.14701e-05
2.99754e-05
4.37208e-05
4.39144e-05
5.08913e-05
5.16645e-05
3.42883e-05
3.64488e-05
3.69355e-05
3.89956e-05
3.81306e-05
4.18107e-05
4.2068e-05
5.03691e-05
4.82577e-05
5.5352e-05
3.1172e-05
-1.77185e-05
-1.96221e-05
-3.39289e-05
-1.26075e-05
-9.22605e-06
9.56315e-06
1.5561e-05
2.64351e-05
3.00523e-05
3.86632e-05
3.90626e-05
3.79389e-05
3.70375e-05
3.21221e-05
2.76511e-05
1.84821e-05
9.83077e-06
1.37039e-06
-5.15108e-06
9.2559e-06
4.42126e-06
2.03102e-05
1.74557e-05
3.02826e-05
2.59323e-05
3.41519e-05
3.255e-05
3.711e-05
3.70547e-05
2.91349e-05
3.0518e-05
3.09194e-05
3.20492e-05
3.09446e-05
3.27857e-05
3.2837e-05
3.63518e-05
3.59385e-05
3.50391e-05
2.2902e-05
-7.55127e-06
-8.8269e-06
-2.01748e-05
-5.66777e-06
-3.73759e-06
1.01404e-05
1.45615e-05
2.29791e-05
2.55464e-05
3.0288e-05
3.03229e-05
2.95599e-05
2.87508e-05
2.51329e-05
2.17997e-05
1.52787e-05
8.41399e-06
2.81619e-06
-3.61394e-06
4.36245e-06
4.69412e-06
1.92358e-05
1.67254e-05
2.61819e-05
2.20732e-05
2.76726e-05
2.6097e-05
2.9379e-05
2.90733e-05
2.56559e-05
2.61842e-05
2.64984e-05
2.68672e-05
2.55617e-05
2.60934e-05
2.5641e-05
2.62872e-05
2.68867e-05
2.32659e-05
1.83418e-05
-1.83773e-06
-1.79148e-06
-1.00841e-05
2.98263e-07
1.57043e-06
1.17008e-05
1.49725e-05
2.1197e-05
2.27623e-05
2.57542e-05
2.53364e-05
2.49976e-05
2.42278e-05
2.14439e-05
1.90311e-05
1.49927e-05
9.2661e-06
6.26586e-06
4.55088e-07
5.87036e-06
5.69367e-06
1.72431e-05
1.45721e-05
2.21393e-05
1.92483e-05
2.33602e-05
2.24363e-05
2.49545e-05
2.44525e-05
2.34884e-05
2.31382e-05
2.35385e-05
2.34255e-05
2.18705e-05
2.16877e-05
2.08475e-05
1.96147e-05
2.07845e-05
1.62872e-05
1.53474e-05
1.94878e-06
3.84826e-06
-2.04189e-06
5.70151e-06
6.59676e-06
1.35727e-05
1.60211e-05
2.04694e-05
2.10819e-05
2.31843e-05
2.22094e-05
2.23057e-05
2.1448e-05
1.92159e-05
1.77778e-05
1.50486e-05
1.03523e-05
9.793e-06
3.75603e-06
8.78993e-06
6.3261e-06
1.55896e-05
1.29384e-05
1.88783e-05
1.73332e-05
2.04172e-05
2.03012e-05
2.22342e-05
2.15801e-05
2.19945e-05
2.11272e-05
2.1772e-05
2.10443e-05
1.95888e-05
1.90131e-05
1.82229e-05
1.54902e-05
1.71778e-05
1.22604e-05
1.40442e-05
4.75109e-06
8.2231e-06
3.4321e-06
9.74284e-06
1.03399e-05
1.50795e-05
1.70872e-05
1.99652e-05
2.01168e-05
2.18225e-05
1.98797e-05
2.07642e-05
1.9804e-05
1.76507e-05
1.68287e-05
1.50969e-05
1.08573e-05
1.21873e-05
6.02907e-06
1.12022e-05
6.98255e-06
1.47661e-05
1.17506e-05
1.67933e-05
1.6256e-05
1.81548e-05
1.90741e-05
2.06227e-05
1.96596e-05
2.16481e-05
1.97747e-05
2.09807e-05
1.96502e-05
1.79373e-05
1.80603e-05
1.67262e-05
1.32148e-05
1.63019e-05
9.94128e-06
1.44661e-05
6.28451e-06
1.15466e-05
7.37817e-06
1.23255e-05
1.33346e-05
1.60416e-05
1.81128e-05
1.96684e-05
1.9201e-05
2.08022e-05
1.84069e-05
2.0168e-05
1.85762e-05
1.67744e-05
1.64577e-05
1.53858e-05
1.05072e-05
1.39291e-05
7.04126e-06
1.32465e-05
7.3924e-06
1.50096e-05
1.08813e-05
1.56692e-05
1.57978e-05
1.69396e-05
1.87174e-05
1.935e-05
1.85668e-05
2.1858e-05
1.82275e-05
2.09266e-05
1.94493e-05
1.68123e-05
1.74851e-05
1.63104e-05
1.1928e-05
1.64952e-05
8.85943e-06
1.55109e-05
7.37081e-06
1.40966e-05
9.67084e-06
1.44681e-05
1.57213e-05
1.61096e-05
1.9205e-05
2.00678e-05
1.84653e-05
2.06076e-05
1.68527e-05
1.99816e-05
1.79118e-05
1.55152e-05
1.67336e-05
1.54182e-05
9.7168e-06
1.56421e-05
6.48246e-06
1.52312e-05
6.75819e-06
1.53833e-05
1.02654e-05
1.48028e-05
1.61237e-05
1.58429e-05
1.88239e-05
1.85487e-05
1.71402e-05
2.19195e-05
1.72124e-05
2.12744e-05
1.87382e-05
1.58736e-05
1.77303e-05
1.61154e-05
1.03895e-05
1.73257e-05
7.71147e-06
1.69225e-05
7.45132e-06
1.62487e-05
1.04756e-05
1.54573e-05
1.72042e-05
1.62054e-05
2.02714e-05
1.97008e-05
1.77759e-05
2.09309e-05
1.43034e-05
2.0085e-05
1.76305e-05
1.30667e-05
1.73062e-05
1.52402e-05
7.8279e-06
1.68785e-05
4.83724e-06
1.66684e-05
5.2701e-06
1.59798e-05
8.86961e-06
1.37244e-05
1.68479e-05
1.3747e-05
1.90416e-05
1.80387e-05
1.47434e-05
2.20095e-05
1.53816e-05
2.18064e-05
1.79968e-05
1.42581e-05
1.84353e-05
1.57253e-05
8.19238e-06
1.88316e-05
5.43993e-06
1.87478e-05
5.86377e-06
1.78684e-05
9.64647e-06
1.55225e-05
1.80308e-05
1.50103e-05
2.11667e-05
1.89972e-05
1.64132e-05
2.10138e-05
1.10939e-05
2.09058e-05
1.64568e-05
9.73805e-06
1.84624e-05
1.47606e-05
4.16921e-06
1.85287e-05
1.33337e-06
1.84028e-05
2.05516e-06
1.68688e-05
5.97304e-06
1.21001e-05
1.70093e-05
1.08221e-05
1.96614e-05
1.6483e-05
1.16831e-05
2.26657e-05
1.25568e-05
2.27459e-05
1.69669e-05
1.10437e-05
1.96941e-05
1.50059e-05
5.20192e-06
2.03477e-05
2.30262e-06
2.03593e-05
3.11941e-06
1.89913e-05
7.04194e-06
1.47876e-05
1.88626e-05
1.23994e-05
2.20048e-05
1.77451e-05
1.35712e-05
2.19396e-05
4.68607e-06
2.34713e-05
1.54313e-05
2.7683e-06
2.1608e-05
1.41448e-05
-3.64962e-06
2.20026e-05
-5.97842e-06
2.1788e-05
-4.8679e-06
1.9154e-05
-5.69859e-07
9.32863e-06
1.82401e-05
4.59785e-06
2.1614e-05
1.4753e-05
5.73666e-06
2.30469e-05
7.37469e-06
2.45742e-05
1.47941e-05
5.49151e-06
2.22435e-05
1.32351e-05
-7.77415e-07
2.24666e-05
-3.60056e-06
2.2301e-05
-2.48645e-06
2.00614e-05
1.59331e-06
1.26552e-05
1.89307e-05
7.17053e-06
2.31994e-05
1.49044e-05
8.69193e-06
2.51623e-05
-9.60374e-06
3.11703e-05
1.16604e-05
-1.45343e-05
3.12319e-05
1.11745e-05
-2.22109e-05
2.96317e-05
-2.28517e-05
2.86975e-05
-2.11147e-05
2.44338e-05
-1.65817e-05
3.86054e-06
2.17171e-05
-9.61402e-06
2.79233e-05
9.92645e-06
-8.56474e-06
-0.0108813
-0.0104875
-0.0101815
-0.00997025
-0.00985416
-0.00984066
-0.00996004
-0.0101927
-0.0105331
-0.0109576
-0.0114447
-0.0119439
-0.0123922
-0.0127114
-0.0128478
-0.0128111
-0.0126116
-0.012264
-0.0118184
-0.0113387
0.00232465
0.0022778
0.0021446
0.00198127
0.0018256
0.00173455
0.00166668
0.00158374
0.00146449
0.0013132
0.0011139
0.000892466
0.00070262
0.000606015
0.000663325
0.00092717
0.00130471
0.00169907
0.00203266
0.00224848
-0.00231929
-0.00208299
-0.0018968
-0.00176124
-0.00171177
-0.00176729
-0.00189463
-0.00204281
-0.00225848
-0.0025114
-0.00283949
-0.00318913
-0.00349414
-0.003671
-0.00371084
-0.00363822
-0.00345224
-0.0031731
-0.00287042
-0.00258057
0.00288116
0.00294404
0.00296753
0.00298379
0.00298668
0.00298602
0.00291871
0.00284139
0.00267619
0.00248553
0.00216065
0.00179287
0.00148132
0.00134442
0.00146694
0.00172742
0.00206969
0.00237949
0.00261711
0.00278163
-0.000461644
-0.000314867
-0.000243027
-0.000197023
-0.000235589
-0.000252134
-0.000313942
-0.0003599
-0.000513168
-0.000705173
-0.0011194
-0.0016211
-0.00205667
-0.00229511
-0.00232476
-0.00214607
-0.00178529
-0.00137118
-0.000985492
-0.000676388
0.00199125
0.00209135
0.00214098
0.0021858
0.00218131
0.00217076
0.00208797
0.00201734
0.00182445
0.00160444
0.00109891
0.000568947
0.000189325
0.000121764
0.00032968
0.000685863
0.00106566
0.00139595
0.00166094
0.00185863
4.56388e-05
8.86386e-05
9.19656e-05
9.57276e-05
7.23944e-05
9.38374e-05
6.33001e-05
5.6663e-05
-8.64284e-05
-0.000290169
-0.000880618
-0.00150172
-0.00190008
-0.00197225
-0.00169511
-0.00125155
-0.000796888
-0.000440774
-0.000189082
-3.38621e-05
0.00122528
0.00129414
0.00132606
0.00135955
0.00133504
0.00132125
0.00124488
0.00118012
0.000996743
0.000753775
0.000126386
-0.000440289
-0.000690825
-0.000528864
-0.00015972
0.000231177
0.000581482
0.000831403
0.00101509
0.00114068
0.000153817
0.000163507
0.000151086
0.000152209
0.000144301
0.000168062
0.000148129
0.000143661
2.38206e-05
-0.000189954
-0.000847421
-0.00145361
-0.0016462
-0.00140228
-0.000950558
-0.000557287
-0.000239942
-4.91513e-05
7.20511e-05
0.000131676
0.000717476
0.000757038
0.000773145
0.000788787
0.000766228
0.000751153
0.000692236
0.00063864
0.000498877
0.000279014
-0.000328869
-0.000813458
-0.000813126
-0.000527549
-0.000129009
0.000154834
0.000379106
0.000508821
0.000607986
0.000671315
0.00015894
0.000163171
0.000153556
0.000159693
0.000154456
0.000172694
0.00015853
0.00016329
8.45081e-05
-5.61439e-05
-0.000619496
-0.00113732
-0.0010745
-0.000783222
-0.000413456
-0.000187178
-1.27463e-05
6.94874e-05
0.000128029
0.000150758
0.000414742
0.000435886
0.000442304
0.000448936
0.000430311
0.000417686
0.000374892
0.000339913
0.000251552
0.000128403
-0.00032892
-0.000614219
-0.000502951
-0.000243562
1.93814e-05
0.000152505
0.000263914
0.000313054
0.000362566
0.000390589
0.000137018
0.000142464
0.000138338
0.000146319
0.000142202
0.000158032
0.000149458
0.000176321
0.000143391
0.000168969
-0.000207398
-0.000579267
-0.00049509
-0.000339628
-0.000135256
-4.48181e-05
4.6725e-05
8.03111e-05
0.000116471
0.000128865
0.000243103
0.000254312
0.000255683
0.000258655
0.000243178
0.000233636
0.00020148
0.000183092
0.000137285
0.00012846
-9.30465e-05
-0.000208114
-0.000137771
-2.57273e-05
9.24758e-05
0.000123496
0.000175266
0.000188844
0.000217026
0.00022944
0.000109761
0.000116325
0.000115845
0.000123533
0.000120316
0.000134335
0.000130564
0.000171661
0.000178242
0.000351751
0.000215793
-0.000157476
-0.000168542
-0.000156641
-6.72089e-05
-2.99796e-05
3.52112e-05
5.74487e-05
8.8827e-05
9.9868e-05
0.000148596
0.000154942
0.0001543
0.000155549
0.000142536
0.000134647
0.00010833
9.59028e-05
6.45039e-05
0.000130699
0.000238755
-2.05862e-06
-3.53004e-05
-3.07101e-05
3.57228e-05
4.91158e-05
9.64422e-05
0.000108138
0.000131812
0.000139388
8.57665e-05
9.19725e-05
9.30198e-05
9.91854e-05
9.64335e-05
0.000106296
0.000103106
0.000128173
0.000117517
0.000173161
9.7058e-05
-7.18535e-05
-6.75956e-05
-9.07983e-05
-3.1412e-05
-2.16208e-05
2.53131e-05
4.0415e-05
6.67117e-05
7.60323e-05
9.77403e-05
0.000101358
0.000100174
0.000100598
9.0143e-05
8.3449e-05
6.3031e-05
5.04034e-05
2.91268e-05
3.12667e-05
6.43802e-05
-5.46117e-06
1.75672e-05
8.06207e-06
4.61169e-05
4.22019e-05
7.03856e-05
7.24937e-05
8.82222e-05
9.16003e-05
6.76814e-05
7.24913e-05
7.37313e-05
7.80139e-05
7.55199e-05
8.15864e-05
7.94014e-05
9.18892e-05
8.49918e-05
9.51195e-05
5.31385e-05
-3.57134e-05
-2.85472e-05
-5.37599e-05
-1.37756e-05
-1.13075e-05
2.27134e-05
3.22293e-05
5.25249e-05
5.93392e-05
7.02317e-05
7.22438e-05
7.11574e-05
7.11377e-05
6.31315e-05
5.77872e-05
4.27478e-05
3.12466e-05
1.60625e-05
6.49777e-06
2.12719e-05
-3.74406e-07
2.93446e-05
1.94396e-05
4.60799e-05
3.75035e-05
5.55914e-05
5.39398e-05
6.46536e-05
6.58774e-05
5.54256e-05
5.8478e-05
5.94368e-05
6.20045e-05
5.93783e-05
6.2606e-05
6.07469e-05
6.57002e-05
6.25397e-05
5.95326e-05
3.89937e-05
-1.50888e-05
-9.65555e-06
-3.06046e-05
-2.70305e-06
-2.49697e-06
2.24895e-05
2.88296e-05
4.41913e-05
4.86437e-05
5.51675e-05
5.60638e-05
5.53963e-05
5.5123e-05
4.91109e-05
4.51041e-05
3.4374e-05
2.46582e-05
1.48721e-05
3.97944e-06
1.30694e-05
4.67597e-06
3.07469e-05
2.20001e-05
4.1686e-05
3.35187e-05
4.61567e-05
4.39926e-05
5.16975e-05
5.18675e-05
4.78575e-05
4.91129e-05
4.99002e-05
5.10438e-05
4.82684e-05
4.94701e-05
4.73879e-05
4.7755e-05
4.72064e-05
3.97706e-05
3.1845e-05
-3.55543e-06
2.17817e-06
-1.37369e-05
6.61688e-06
6.2181e-06
2.4422e-05
2.88298e-05
4.00407e-05
4.24718e-05
4.70561e-05
4.67261e-05
4.66588e-05
4.60848e-05
4.1338e-05
3.84666e-05
3.16465e-05
2.30212e-05
1.80626e-05
7.48564e-06
1.49651e-05
8.59624e-06
2.94554e-05
2.13848e-05
3.69717e-05
3.09907e-05
4.02356e-05
3.88722e-05
4.45754e-05
4.395e-05
4.34678e-05
4.29096e-05
4.38934e-05
4.40224e-05
4.09768e-05
4.11235e-05
3.88772e-05
3.61908e-05
3.75202e-05
2.85168e-05
2.78437e-05
3.90257e-06
1.13968e-05
-4.70091e-07
1.49647e-05
1.45409e-05
2.71315e-05
3.0403e-05
3.83008e-05
3.896e-05
4.26195e-05
4.09172e-05
4.16017e-05
4.05442e-05
3.66109e-05
3.50801e-05
3.04082e-05
2.28012e-05
2.23151e-05
1.10372e-05
1.94012e-05
1.1055e-05
2.82967e-05
2.09211e-05
3.32822e-05
2.97144e-05
3.64182e-05
3.63025e-05
4.04252e-05
3.92096e-05
4.08267e-05
3.89247e-05
4.05078e-05
3.94205e-05
3.65223e-05
3.62136e-05
3.42858e-05
2.91261e-05
3.22662e-05
2.22415e-05
2.67589e-05
9.27382e-06
1.86795e-05
8.70993e-06
2.13074e-05
2.09699e-05
2.93917e-05
3.22981e-05
3.73259e-05
3.70204e-05
4.04954e-05
3.67822e-05
3.89344e-05
3.73232e-05
3.34515e-05
3.29446e-05
2.98098e-05
2.23973e-05
2.56822e-05
1.36562e-05
2.35724e-05
1.30492e-05
2.82958e-05
2.06617e-05
3.11631e-05
2.95181e-05
3.35603e-05
3.5221e-05
3.81202e-05
3.61734e-05
4.03126e-05
3.62877e-05
3.91832e-05
3.68344e-05
3.34796e-05
3.44189e-05
3.18303e-05
2.51105e-05
3.14445e-05
1.86848e-05
2.84463e-05
1.23763e-05
2.44969e-05
1.53178e-05
2.55486e-05
2.6286e-05
3.08879e-05
3.43591e-05
3.68945e-05
3.54469e-05
3.92574e-05
3.40701e-05
3.81414e-05
3.5197e-05
3.15995e-05
3.221e-05
2.9965e-05
2.10827e-05
2.86376e-05
1.4621e-05
2.7517e-05
1.42414e-05
2.98225e-05
2.0436e-05
3.03341e-05
3.01356e-05
3.20809e-05
3.55263e-05
3.64687e-05
3.44225e-05
4.0872e-05
3.34544e-05
3.9323e-05
3.62573e-05
3.13222e-05
3.36496e-05
3.11585e-05
2.25421e-05
3.24824e-05
1.67168e-05
3.1161e-05
1.42553e-05
2.91829e-05
1.91265e-05
2.90632e-05
3.06914e-05
3.10118e-05
3.66703e-05
3.7525e-05
3.41271e-05
3.93487e-05
3.1147e-05
3.82255e-05
3.40192e-05
2.91698e-05
3.2782e-05
2.99025e-05
1.90537e-05
3.18168e-05
1.31008e-05
3.14659e-05
1.33233e-05
3.14443e-05
1.99487e-05
2.96171e-05
3.16774e-05
3.04744e-05
3.65212e-05
3.54111e-05
3.20446e-05
4.13555e-05
3.10923e-05
4.02353e-05
3.4985e-05
2.91355e-05
3.43693e-05
3.07643e-05
1.92999e-05
3.45834e-05
1.41306e-05
3.43837e-05
1.39216e-05
3.31722e-05
2.01368e-05
3.06221e-05
3.36534e-05
3.07258e-05
3.89262e-05
3.69191e-05
3.2532e-05
4.02021e-05
2.64322e-05
3.89072e-05
3.32428e-05
2.46401e-05
3.41119e-05
2.94365e-05
1.50163e-05
3.45353e-05
9.42691e-06
3.46997e-05
1.0348e-05
3.32527e-05
1.74982e-05
2.81448e-05
3.34701e-05
2.6852e-05
3.75944e-05
3.44201e-05
2.78446e-05
4.19203e-05
2.70461e-05
4.16532e-05
3.34638e-05
2.53862e-05
3.6089e-05
2.99165e-05
1.44758e-05
3.78351e-05
9.17992e-06
3.82522e-05
1.02986e-05
3.63633e-05
1.79043e-05
3.0442e-05
3.54414e-05
2.78957e-05
4.09235e-05
3.54405e-05
2.94091e-05
4.08153e-05
2.01332e-05
4.0933e-05
3.09898e-05
1.81173e-05
3.67254e-05
2.83431e-05
7.73394e-06
3.81595e-05
2.28304e-06
3.85434e-05
3.94865e-06
3.5481e-05
1.18663e-05
2.54404e-05
3.4282e-05
2.11997e-05
3.92739e-05
3.1522e-05
2.20197e-05
4.34354e-05
2.07387e-05
4.41497e-05
3.12445e-05
1.83857e-05
3.92319e-05
2.83352e-05
7.44791e-06
4.15493e-05
1.89198e-06
4.21368e-05
3.85021e-06
3.90253e-05
1.1927e-05
2.86891e-05
3.71899e-05
2.20538e-05
4.30728e-05
3.27062e-05
2.33521e-05
4.27884e-05
8.32995e-06
4.60367e-05
2.85519e-05
5.28991e-06
4.29648e-05
2.66793e-05
-6.63754e-06
4.48653e-05
-1.14327e-05
4.50808e-05
-8.94946e-06
3.98759e-05
-2.77787e-07
2.0623e-05
3.66053e-05
9.76833e-06
4.31744e-05
2.77962e-05
1.11457e-05
4.49207e-05
9.99297e-06
4.88158e-05
2.70872e-05
6.72307e-06
4.53749e-05
2.49423e-05
-5.24908e-06
4.68747e-05
-1.06681e-05
4.70907e-05
-8.03614e-06
4.20967e-05
4.62144e-07
2.45461e-05
3.81751e-05
1.13259e-05
4.64057e-05
2.7257e-05
1.33239e-05
4.81943e-05
-1.44817e-05
5.91018e-05
2.201e-05
-2.20197e-05
5.93315e-05
2.14898e-05
-3.60659e-05
5.80258e-05
-3.85657e-05
5.70721e-05
-3.49877e-05
4.88732e-05
-2.58729e-05
1.21564e-05
4.24227e-05
-1.28173e-05
5.37424e-05
1.93482e-05
-1.13095e-05
-0.0134044
-0.0128518
-0.0124001
-0.012071
-0.0118782
-0.0118506
-0.0120049
-0.0123192
-0.0127828
-0.0133603
-0.0140161
-0.0146824
-0.0152779
-0.0157079
-0.0159055
-0.0158775
-0.0156377
-0.0152064
-0.0146423
-0.0140191
0.00193782
0.00199387
0.0019256
0.00178926
0.00162984
0.00151321
0.00137779
0.00120463
0.000972064
0.000689483
0.000345294
-2.08764e-05
-0.000334113
-0.000510264
-0.00046968
-0.000160125
0.00031994
0.000857
0.00135155
0.00172531
-0.00272243
-0.00241472
-0.00219859
-0.00206469
-0.00205126
-0.00215895
-0.00235597
-0.00259448
-0.00292707
-0.00332165
-0.00381826
-0.00433902
-0.00478301
-0.00502713
-0.00505701
-0.00487547
-0.00451396
-0.00403493
-0.00354345
-0.00309754
0.00334844
0.00342374
0.0034404
0.00344121
0.00341596
0.00337074
0.00324405
0.00308906
0.00281186
0.00247755
0.00196577
0.00141479
0.000984761
0.000845559
0.00109443
0.00154376
0.00209612
0.00258926
0.00296128
0.0032088
-0.000292836
-0.000136228
-6.72335e-05
-3.24664e-05
-9.49969e-05
-0.000137222
-0.000247823
-0.000360596
-0.000625346
-0.000971762
-0.00160434
-0.00231069
-0.00284303
-0.00305132
-0.00292236
-0.00252715
-0.00195969
-0.00138712
-0.000899585
-0.000533873
0.00243355
0.00255009
0.00260453
0.00264986
0.00262602
0.002592
0.00246046
0.00232439
0.0020164
0.00163296
0.000885945
0.000162843
-0.000267985
-0.000214677
0.000186144
0.000739133
0.00127382
0.00170803
0.00203832
0.00227646
0.000265019
0.000320985
0.000326783
0.000328523
0.000295412
0.000302911
0.000234725
0.000174653
-7.68451e-05
-0.000446411
-0.00129932
-0.00210489
-0.00251964
-0.00244449
-0.00196581
-0.00134636
-0.000764177
-0.000327239
-2.3273e-05
0.000165446
0.00154071
0.00162738
0.00166611
0.00170205
0.00166503
0.00163523
0.00151997
0.00140143
0.00111151
0.000701008
-0.000192461
-0.000913689
-0.00111827
-0.000799757
-0.00024666
0.000278926
0.0007263
0.00104033
0.00127175
0.00143192
0.000337863
0.000358736
0.000348345
0.000351786
0.000335963
0.000351244
0.000302151
0.000255917
4.27016e-05
-0.000330104
-0.0012553
-0.00199996
-0.00211219
-0.00170235
-0.00108585
-0.000583033
-0.000186393
5.51757e-05
0.000214493
0.000299658
0.000927762
0.000979632
0.000999599
0.0010168
0.000985165
0.000959669
0.000872171
0.00077909
0.00055538
0.000189633
-0.000669206
-0.00125266
-0.00114881
-0.000711967
-0.000179485
0.000186312
0.00047396
0.000644784
0.000777928
0.000864973
0.000296253
0.000308385
0.000300067
0.000308855
0.000297582
0.000311064
0.000276526
0.000254886
0.000109219
-0.000152072
-0.000946134
-0.00154594
-0.00136915
-0.000950442
-0.000471251
-0.000184052
4.07082e-05
0.000153344
0.000237928
0.000277135
0.000551691
0.000580566
0.00058882
0.000596883
0.000571474
0.000552722
0.000490804
0.000432598
0.000289673
6.83475e-05
-0.000583693
-0.000906578
-0.000691937
-0.00033223
1.09818e-05
0.000184087
0.000333298
0.000404372
0.000475436
0.000517286
0.000234626
0.000245825
0.000242759
0.000253261
0.000244781
0.000259088
0.000238089
0.000255174
0.000185
0.00015167
-0.000387913
-0.000800907
-0.000631582
-0.000410662
-0.000145888
-2.95983e-05
9.24575e-05
0.000142202
0.000196009
0.000218725
0.000332715
0.000349002
0.000351239
0.000355642
0.000335065
0.000322408
0.000277986
0.000249627
0.000176087
0.000124841
-0.000209724
-0.000338357
-0.000203996
-4.9944e-05
0.000107442
0.000151106
0.000225068
0.000249174
0.000291676
0.000312258
0.000178169
0.000189107
0.000189528
0.000199471
0.000193077
0.000207502
0.000196667
0.000238963
0.000231804
0.000401379
0.000184106
-0.000245906
-0.000215392
-0.000187532
-6.58667e-05
-1.95437e-05
6.72458e-05
9.91377e-05
0.000144053
0.000162243
0.000208865
0.000218744
0.000218531
0.00022103
0.000203977
0.000194424
0.000159436
0.000143451
9.81689e-05
0.000164895
0.000251631
-4.87282e-05
-6.17888e-05
-5.00062e-05
4.2178e-05
6.20575e-05
0.000127877
0.000146598
0.000181575
0.000194645
0.000134382
0.000143843
0.000145563
0.000153503
0.000148187
0.000158678
0.000150569
0.000177496
0.000157967
0.00021795
0.000112286
-0.000106769
-9.01497e-05
-0.00011569
-3.31665e-05
-1.87697e-05
4.61322e-05
6.81544e-05
0.000105442
0.000119899
0.000140271
0.000146337
0.000145351
0.000146721
0.000132965
0.000125092
9.8135e-05
8.28762e-05
5.26131e-05
5.35025e-05
7.83069e-05
-2.35735e-05
1.06683e-05
-2.32068e-06
5.34214e-05
5.09148e-05
9.29659e-05
9.91324e-05
0.000123446
0.000130395
0.000103654
0.000110725
0.000112378
0.000117883
0.000113185
0.000119565
0.000113704
0.000126606
0.00011399
0.000123017
6.73152e-05
-5.16244e-05
-3.67532e-05
-6.84345e-05
-1.22244e-05
-8.28047e-06
3.91804e-05
5.28985e-05
8.14844e-05
9.16928e-05
0.000102255
0.000105868
0.000104848
0.00010544
9.4739e-05
8.84501e-05
6.85261e-05
5.44227e-05
3.31377e-05
1.98315e-05
3.07306e-05
-7.38701e-06
3.18644e-05
1.65817e-05
5.58958e-05
4.63359e-05
7.43773e-05
7.47028e-05
9.1695e-05
9.50974e-05
8.37467e-05
8.8181e-05
8.93556e-05
9.26376e-05
8.80329e-05
9.12543e-05
8.65342e-05
9.07571e-05
8.40364e-05
7.75824e-05
5.06678e-05
-2.15902e-05
-9.89526e-06
-3.71344e-05
2.61261e-06
2.72525e-06
3.7523e-05
4.62722e-05
6.77173e-05
7.42343e-05
8.10977e-05
8.28552e-05
8.22229e-05
8.22517e-05
7.40126e-05
6.92437e-05
5.49234e-05
4.26611e-05
2.90846e-05
1.37508e-05
2.16186e-05
3.58432e-06
3.77825e-05
2.39326e-05
5.30422e-05
4.32335e-05
6.31231e-05
6.19583e-05
7.42746e-05
7.56643e-05
7.1719e-05
7.35413e-05
7.4478e-05
7.5896e-05
7.13028e-05
7.22823e-05
6.78987e-05
6.67702e-05
6.42851e-05
5.27138e-05
4.25238e-05
-4.58229e-06
6.76472e-06
-1.44222e-05
1.48647e-05
1.38523e-05
3.92038e-05
4.50973e-05
6.07192e-05
6.42319e-05
6.95216e-05
6.93197e-05
6.93663e-05
6.87759e-05
6.20989e-05
5.86495e-05
4.92659e-05
3.80727e-05
3.12423e-05
1.61335e-05
2.41992e-05
1.09508e-05
3.87035e-05
2.61423e-05
4.90874e-05
4.16989e-05
5.6311e-05
5.56734e-05
6.47625e-05
6.46459e-05
6.48245e-05
6.40448e-05
6.52812e-05
6.52842e-05
6.05035e-05
6.04063e-05
5.6296e-05
5.15478e-05
5.23071e-05
3.88905e-05
3.85505e-05
6.3449e-06
1.92645e-05
3.03283e-06
2.54411e-05
2.44302e-05
4.21164e-05
4.65059e-05
5.75281e-05
5.8529e-05
6.3225e-05
6.09042e-05
6.19438e-05
6.05037e-05
5.48012e-05
5.2978e-05
4.6406e-05
3.61385e-05
3.54716e-05
1.94304e-05
2.99272e-05
1.56329e-05
3.91035e-05
2.77609e-05
4.60898e-05
4.16315e-05
5.21893e-05
5.28754e-05
5.9376e-05
5.81279e-05
6.09263e-05
5.80302e-05
6.02122e-05
5.85531e-05
5.39636e-05
5.3579e-05
5.0143e-05
4.23873e-05
4.63036e-05
3.14493e-05
3.83438e-05
1.41874e-05
2.9189e-05
1.52829e-05
3.36155e-05
3.29393e-05
4.47895e-05
4.88292e-05
5.58883e-05
5.53838e-05
6.0309e-05
5.50788e-05
5.81368e-05
5.57316e-05
5.00648e-05
4.96597e-05
4.50205e-05
3.46368e-05
3.93789e-05
2.20549e-05
3.56691e-05
1.92395e-05
4.06752e-05
2.91895e-05
4.48188e-05
4.28608e-05
4.93455e-05
5.21883e-05
5.65659e-05
5.40817e-05
6.0026e-05
5.4023e-05
5.82112e-05
5.4789e-05
4.96025e-05
5.09971e-05
4.69852e-05
3.70742e-05
4.58432e-05
2.72995e-05
4.1504e-05
1.8871e-05
3.72447e-05
2.4081e-05
3.92685e-05
4.01582e-05
4.66678e-05
5.16817e-05
5.52465e-05
5.30583e-05
5.88197e-05
5.10649e-05
5.69666e-05
5.26788e-05
4.71128e-05
4.84837e-05
4.48602e-05
3.23011e-05
4.32095e-05
2.27669e-05
4.12818e-05
2.13419e-05
4.37946e-05
3.00992e-05
4.4773e-05
4.48767e-05
4.79073e-05
5.32336e-05
5.46982e-05
5.16314e-05
6.06235e-05
4.98524e-05
5.82403e-05
5.35634e-05
4.63326e-05
5.00107e-05
4.60379e-05
3.33495e-05
4.77424e-05
2.46623e-05
4.58513e-05
2.14359e-05
4.37725e-05
2.90525e-05
4.37745e-05
4.61599e-05
4.67648e-05
5.49022e-05
5.58552e-05
5.10161e-05
5.89984e-05
4.6724e-05
5.70802e-05
5.0832e-05
4.34427e-05
4.91366e-05
4.45789e-05
2.89945e-05
4.75005e-05
2.03188e-05
4.68963e-05
2.03354e-05
4.6793e-05
2.99675e-05
4.44453e-05
4.76341e-05
4.59169e-05
5.50232e-05
5.33974e-05
4.83082e-05
6.13133e-05
4.59966e-05
5.94235e-05
5.16396e-05
4.27727e-05
5.10427e-05
4.54109e-05
2.85383e-05
5.1002e-05
2.07936e-05
5.0743e-05
2.0674e-05
4.92909e-05
3.01037e-05
4.56582e-05
5.03043e-05
4.59045e-05
5.80368e-05
5.49275e-05
4.83526e-05
6.01578e-05
4.01128e-05
5.8187e-05
4.94509e-05
3.71064e-05
5.10388e-05
4.38299e-05
2.30276e-05
5.15299e-05
1.48859e-05
5.18004e-05
1.62086e-05
4.98684e-05
2.67964e-05
4.2821e-05
5.04128e-05
4.11151e-05
5.68774e-05
5.19112e-05
4.25702e-05
6.22524e-05
3.98916e-05
6.15761e-05
4.94252e-05
3.70138e-05
5.36406e-05
4.42066e-05
2.13884e-05
5.5817e-05
1.3612e-05
5.64837e-05
1.53888e-05
5.38934e-05
2.66838e-05
4.52364e-05
5.30152e-05
4.16226e-05
6.09759e-05
5.27599e-05
4.35259e-05
6.12231e-05
3.1256e-05
6.12551e-05
4.63789e-05
2.79604e-05
5.49016e-05
4.22787e-05
1.27752e-05
5.69142e-05
4.85564e-06
5.76029e-05
7.38695e-06
5.34447e-05
1.91536e-05
3.94555e-05
5.20355e-05
3.33837e-05
5.95614e-05
4.79974e-05
3.44659e-05
6.44085e-05
3.06181e-05
6.54546e-05
4.62863e-05
2.68385e-05
5.84351e-05
4.19958e-05
1.0861e-05
6.15206e-05
2.88929e-06
6.24899e-05
5.91901e-06
5.80127e-05
1.80263e-05
4.26799e-05
5.57003e-05
3.32048e-05
6.43422e-05
4.88363e-05
3.47439e-05
6.39339e-05
1.55895e-05
6.82913e-05
4.28924e-05
1.09539e-05
6.34981e-05
3.98719e-05
-6.292e-06
6.60911e-05
-1.33833e-05
6.66283e-05
-9.65695e-06
5.95094e-05
3.18446e-06
3.32936e-05
5.53474e-05
1.84116e-05
6.49967e-05
4.27678e-05
2.0042e-05
6.65775e-05
1.56791e-05
7.2214e-05
4.06669e-05
1.05619e-05
6.72437e-05
3.7458e-05
-6.93813e-06
6.92873e-05
-1.46052e-05
6.98044e-05
-1.05883e-05
6.26186e-05
2.17247e-06
3.69845e-05
5.75015e-05
1.84918e-05
6.92623e-05
4.14262e-05
2.0784e-05
7.02709e-05
-1.19742e-05
8.43355e-05
3.46976e-05
-2.18569e-05
8.36816e-05
3.34508e-05
-4.17238e-05
8.24129e-05
-4.61567e-05
8.15701e-05
-4.10484e-05
7.04859e-05
-2.76458e-05
2.29324e-05
6.23923e-05
-8.73765e-06
7.77761e-05
3.20235e-05
-6.91957e-06
-0.014816
-0.0141862
-0.0136688
-0.0132912
-0.0130756
-0.0130583
-0.0132467
-0.0136185
-0.0141598
-0.0148279
-0.0155791
-0.0163345
-0.0170019
-0.0174766
-0.0176878
-0.0176427
-0.0173582
-0.0168618
-0.01622
-0.0155135
0.00141967
0.0015277
0.00149682
0.00138192
0.00123273
0.00110834
0.000932808
0.000702067
0.000393646
2.32205e-05
-0.000415185
-0.000869964
-0.00125142
-0.00146299
-0.00141439
-0.00106133
-0.000513007
0.000107292
0.000687582
0.00114055
-0.00307885
-0.00272327
-0.00248435
-0.00234735