/*--------------------------------*- C++ -*----------------------------------*\
| =========                 |                                                 |
| \\      /  F ield         | OpenFOAM: The Open Source CFD Toolbox           |
|  \\    /   O peration     | Version:  2.4.0                                 |
|   \\  /    A nd           | Web:      www.OpenFOAM.org                      |
|    \\/     M anipulation  |                                                 |
\*---------------------------------------------------------------------------*/
FoamFile
{
    version     2.0;
    format      ascii;
    class       volScalarField;
    location    "260";
    object      p;
}
// * * * * * * * * * * * * * * * * * * * * * * * * * * * * * * * * * * * * * //

dimensions      [0 2 -2 0 0 0 0];

internalField   nonuniform List<scalar> 
283312
(
-0.00623122
-0.00629175
-0.00653194
-0.00687167
-0.00722283
-0.00751582
-0.0077426
-0.00789915
-0.00801853
-0.00812494
-0.00823914
-0.00834824
-0.00842027
-0.00840013
-0.00825259
-0.00798464
-0.00760895
-0.00716081
-0.00672005
-0.00638389
0.00213418
0.00163428
0.00121124
0.000945227
0.000848492
0.000915641
0.00106001
0.00120175
0.0013128
0.00140128
0.00146999
0.00155065
0.00168031
0.00188137
0.00216453
0.00252826
0.00283865
0.00298439
0.00290384
0.00259714
-0.00233109
-0.00217133
-0.00193948
-0.00169235
-0.00149473
-0.0013939
-0.00137379
-0.00137883
-0.00142691
-0.00146744
-0.00149626
-0.00147389
-0.0014034
-0.00130822
-0.0012696
-0.0013865
-0.00163899
-0.00194199
-0.00220764
-0.00234847
0.00146089
0.00163814
0.00178508
0.00190204
0.00198611
0.00205581
0.00206286
0.00206939
0.00203624
0.00204773
0.0020666
0.00211448
0.00213958
0.00209088
0.00195554
0.00170857
0.00145646
0.00127507
0.00122567
0.00130609
-0.000752113
-0.000551523
-0.000433143
-0.000353439
-0.000349098
-0.000335827
-0.000347077
-0.000333101
-0.000362537
-0.000338203
-0.000344611
-0.000400665
-0.000584841
-0.000913328
-0.00134585
-0.00168713
-0.00177508
-0.00162941
-0.00134031
-0.00102093
0.00119341
0.00130364
0.00136197
0.00140796
0.00142207
0.00142964
0.00139527
0.00138215
0.00131798
0.0013286
0.00127601
0.00115217
0.000868226
0.000498507
0.000226615
0.000157601
0.00029179
0.000540453
0.00080963
0.00103542
-0.000153687
-0.000113386
-0.000105847
-9.9378e-05
-0.000110414
-8.52267e-05
-8.56679e-05
-5.73222e-05
-8.85889e-05
-6.298e-05
-0.000173342
-0.000440222
-0.000859641
-0.00127627
-0.00141469
-0.00126243
-0.000947255
-0.000632069
-0.000388126
-0.00023396
0.000757279
0.000806451
0.000830044
0.000855043
0.000843611
0.000840115
0.000802707
0.000782221
0.000713804
0.000704318
0.000550728
0.000243428
-0.000159005
-0.000356635
-0.000311994
-8.48053e-05
0.000198601
0.000425562
0.000588116
0.000692007
-2.05281e-06
1.53169e-07
-1.03604e-05
-1.16495e-05
-1.29976e-05
8.85678e-06
1.06094e-05
3.01797e-05
2.5119e-06
6.31194e-06
-0.00018469
-0.000586398
-0.000986212
-0.00107278
-0.00086553
-0.000579592
-0.000317251
-0.000153509
-5.73394e-05
-1.47519e-05
0.000438295
0.000462851
0.000473612
0.000484184
0.000471485
0.000463153
0.000432899
0.000410502
0.000357601
0.00034077
0.000162952
-0.000203735
-0.000453567
-0.000441141
-0.000213144
9.0726e-06
0.000192014
0.000296748
0.000367292
0.000408916
4.30725e-05
4.13089e-05
3.26409e-05
3.46496e-05
3.39416e-05
4.89372e-05
4.92362e-05
6.52888e-05
4.81905e-05
7.2931e-05
-0.000102378
-0.000529389
-0.000709313
-0.000628347
-0.000388008
-0.000205051
-6.82817e-05
-5.6687e-06
3.11897e-05
4.20338e-05
0.000249406
0.000261118
0.00026488
0.000268071
0.00025697
0.000248228
0.000224774
0.000207081
0.000172015
0.000190893
5.54233e-05
-0.000224849
-0.000328891
-0.000223394
-4.44445e-05
6.87642e-05
0.000153694
0.000189822
0.000219782
0.000235639
5.46416e-05
5.47415e-05
5.03554e-05
5.38934e-05
5.27331e-05
6.39985e-05
6.36282e-05
8.70703e-05
8.37e-05
0.000189906
7.63613e-05
-0.000269905
-0.000353502
-0.00028847
-0.000144096
-6.31312e-05
4.30716e-06
2.81735e-05
4.80787e-05
5.27387e-05
0.000144857
0.000150002
0.000150162
0.00015048
0.000140735
0.000132956
0.000113911
0.000101667
8.12494e-05
0.000138304
9.79926e-05
-5.04656e-05
-0.00010741
-5.23591e-05
3.40911e-05
7.06724e-05
0.000107954
0.000117599
0.000132398
0.000138126
5.27207e-05
5.45067e-05
5.30741e-05
5.66933e-05
5.55172e-05
6.45415e-05
6.48601e-05
9.34009e-05
0.000105394
0.000280263
0.000267456
-5.00816e-05
-0.000136463
-0.000139045
-7.46984e-05
-3.46011e-05
1.11089e-05
2.67716e-05
4.38548e-05
4.87637e-05
8.88195e-05
9.1007e-05
8.9767e-05
8.8998e-05
8.06731e-05
7.381e-05
5.75245e-05
4.68831e-05
2.90528e-05
8.60814e-05
0.000196327
3.77191e-05
-1.87893e-05
-1.89762e-05
2.17367e-05
3.50658e-05
6.34392e-05
7.01591e-05
8.17841e-05
8.48021e-05
4.63286e-05
4.85636e-05
4.84847e-05
5.13704e-05
5.02931e-05
5.63386e-05
5.61779e-05
7.2617e-05
6.88199e-05
0.000107547
6.71962e-05
-3.01438e-05
-3.95213e-05
-5.43157e-05
-2.05169e-05
-1.16614e-05
1.48665e-05
2.3536e-05
3.72288e-05
4.1786e-05
5.94933e-05
6.02368e-05
5.87158e-05
5.76416e-05
5.09288e-05
4.50801e-05
3.23404e-05
2.1946e-05
9.99653e-06
9.35065e-06
4.12204e-05
1.04043e-05
1.94314e-05
1.70148e-05
3.67052e-05
3.54323e-05
4.92716e-05
4.93286e-05
5.62597e-05
5.71389e-05
3.96337e-05
4.14806e-05
4.17713e-05
4.36613e-05
4.2579e-05
4.60641e-05
4.60482e-05
5.41692e-05
5.18202e-05
5.86114e-05
3.41368e-05
-1.49266e-05
-1.62828e-05
-3.0023e-05
-7.99143e-06
-4.2632e-06
1.47713e-05
2.07883e-05
3.16941e-05
3.54404e-05
4.38644e-05
4.39673e-05
4.26619e-05
4.15895e-05
3.64535e-05
3.17586e-05
2.23037e-05
1.34332e-05
4.7056e-06
-2.08475e-06
1.1967e-05
6.90795e-06
2.32084e-05
2.09636e-05
3.45158e-05
3.05839e-05
3.91232e-05
3.76095e-05
4.22237e-05
4.22979e-05
3.42249e-05
3.53426e-05
3.55946e-05
3.65775e-05
3.5282e-05
3.69317e-05
3.67343e-05
4.00601e-05
3.94052e-05
3.82318e-05
2.58453e-05
-4.75921e-06
-5.74838e-06
-1.67052e-05
-1.59712e-06
7.33233e-07
1.49321e-05
1.94619e-05
2.79512e-05
3.06616e-05
3.5183e-05
3.49671e-05
3.40638e-05
3.31069e-05
2.93019e-05
2.57808e-05
1.90342e-05
1.19763e-05
6.13587e-06
-5.50842e-07
7.18643e-06
7.40241e-06
2.2219e-05
2.01394e-05
3.01397e-05
2.63883e-05
3.22591e-05
3.0783e-05
3.41463e-05
3.39901e-05
3.03873e-05
3.06925e-05
3.08891e-05
3.11291e-05
2.96666e-05
3.00491e-05
2.94323e-05
2.99467e-05
3.03598e-05
2.6524e-05
2.14395e-05
1.19403e-06
1.45652e-06
-6.55973e-06
4.21601e-06
5.73179e-06
1.60688e-05
1.94331e-05
2.5761e-05
2.74961e-05
3.02889e-05
2.96711e-05
2.92212e-05
2.83185e-05
2.53782e-05
2.28148e-05
1.86197e-05
1.27616e-05
9.58788e-06
3.57701e-06
8.84013e-06
8.6085e-06
2.03524e-05
1.79543e-05
2.58539e-05
2.31697e-05
2.74709e-05
2.66496e-05
2.92912e-05
2.89731e-05
2.78787e-05
2.73643e-05
2.76711e-05
2.7431e-05
2.57357e-05
2.54244e-05
2.44678e-05
2.31472e-05
2.42088e-05
1.95786e-05
1.8541e-05
5.08038e-06
7.0823e-06
1.32587e-06
9.29527e-06
1.0337e-05
1.74846e-05
2.00401e-05
2.46244e-05
2.54348e-05
2.74381e-05
2.633e-05
2.63439e-05
2.53545e-05
2.29794e-05
2.14093e-05
1.85661e-05
1.3776e-05
1.31054e-05
6.93963e-06
1.1877e-05
9.35299e-06
1.87056e-05
1.61878e-05
2.23348e-05
2.09309e-05
2.41882e-05
2.41777e-05
2.62433e-05
2.57859e-05
2.61335e-05
2.5159e-05
2.57352e-05
2.48844e-05
2.33021e-05
2.26133e-05
2.17399e-05
1.89377e-05
2.05437e-05
1.55279e-05
1.72386e-05
7.89403e-06
1.14207e-05
6.70574e-06
1.31825e-05
1.38918e-05
1.87895e-05
2.08852e-05
2.38766e-05
2.42107e-05
2.58306e-05
2.37931e-05
2.46123e-05
2.35347e-05
2.12637e-05
2.03344e-05
1.85213e-05
1.41979e-05
1.54245e-05
9.15288e-06
1.42373e-05
9.96964e-06
1.78273e-05
1.49171e-05
2.01415e-05
1.97293e-05
2.17928e-05
2.27932e-05
2.44388e-05
2.36369e-05
2.55008e-05
2.35341e-05
2.46695e-05
2.32288e-05
2.14172e-05
2.14567e-05
2.00631e-05
1.64772e-05
1.9468e-05
1.30039e-05
1.74427e-05
9.21777e-06
1.4541e-05
1.04552e-05
1.55708e-05
1.66993e-05
1.95713e-05
2.17214e-05
2.33643e-05
2.30406e-05
2.44935e-05
2.19972e-05
2.36728e-05
2.19723e-05
2.0082e-05
1.97025e-05
1.8584e-05
1.3619e-05
1.69249e-05
9.91536e-06
1.60193e-05
1.01211e-05
1.7812e-05
1.37713e-05
1.87307e-05
1.89916e-05
2.03062e-05
2.21766e-05
2.29042e-05
2.22543e-05
2.53844e-05
2.16431e-05
2.42375e-05
2.26488e-05
1.99339e-05
2.05728e-05
1.93739e-05
1.49137e-05
1.9368e-05
1.16147e-05
1.81709e-05
9.99303e-06
1.67814e-05
1.24172e-05
1.7361e-05
1.87361e-05
1.92902e-05
2.2489e-05
2.34586e-05
2.19897e-05
2.39984e-05
2.01206e-05
2.31305e-05
2.09482e-05
1.84732e-05
1.96839e-05
1.83634e-05
1.25774e-05
1.83895e-05
9.09731e-06
1.77558e-05
9.23877e-06
1.79322e-05
1.28569e-05
1.75254e-05
1.89724e-05
1.88463e-05
2.19465e-05
2.17954e-05
2.0517e-05
2.52195e-05
2.0381e-05
2.43174e-05
2.16705e-05
1.87222e-05
2.05902e-05
1.89852e-05
1.31766e-05
2.00098e-05
1.02599e-05
1.93966e-05
9.87825e-06
1.87412e-05
1.29836e-05
1.80689e-05
1.99417e-05
1.90812e-05
2.32787e-05
2.28473e-05
2.10493e-05
2.41975e-05
1.7427e-05
2.30905e-05
2.05291e-05
1.58668e-05
2.01316e-05
1.80801e-05
1.05744e-05
1.95474e-05
7.35438e-06
1.91364e-05
7.67504e-06
1.84647e-05
1.13506e-05
1.63032e-05
1.95632e-05
1.65774e-05
2.20115e-05
2.11506e-05
1.7966e-05
2.52765e-05
1.85048e-05
2.48146e-05
2.0901e-05
1.70615e-05
2.12585e-05
1.85527e-05
1.09318e-05
2.15172e-05
7.97571e-06
2.12561e-05
8.30387e-06
2.03981e-05
1.21762e-05
1.81496e-05
2.07953e-05
1.78743e-05
2.41586e-05
2.21187e-05
1.96354e-05
2.42745e-05
1.41936e-05
2.3919e-05
1.93755e-05
1.25332e-05
2.12882e-05
1.75781e-05
6.86996e-06
2.12299e-05
3.85673e-06
2.09488e-05
4.49792e-06
1.94433e-05
8.54345e-06
1.4788e-05
1.98517e-05
1.3734e-05
2.26958e-05
1.96239e-05
1.48869e-05
2.59348e-05
1.56584e-05
2.57819e-05
1.99239e-05
1.3868e-05
2.25465e-05
1.78392e-05
7.90269e-06
2.30745e-05
4.84485e-06
2.29515e-05
5.59183e-06
2.1626e-05
9.6883e-06
1.75509e-05
2.1797e-05
1.53866e-05
2.51078e-05
2.09438e-05
1.67903e-05
2.5196e-05
7.76955e-06
2.65059e-05
1.8384e-05
5.59791e-06
2.44778e-05
1.69714e-05
-9.71406e-07
2.47549e-05
-3.43439e-06
2.44211e-05
-2.38565e-06
2.18384e-05
2.13716e-06
1.21905e-05
2.12404e-05
7.64833e-06
2.47558e-05
1.79603e-05
8.9468e-06
2.63182e-05
1.05167e-05
2.76161e-05
1.77522e-05
8.40063e-06
2.51358e-05
1.60693e-05
1.96592e-06
2.52437e-05
-9.76478e-07
2.4961e-05
7.86757e-08
2.27753e-05
4.42382e-06
1.56726e-05
2.19793e-05
1.03357e-05
2.63717e-05
1.81236e-05
1.19597e-05
2.83634e-05
-6.53219e-06
3.41459e-05
1.45378e-05
-1.16907e-05
3.40831e-05
1.39421e-05
-1.95609e-05
3.23832e-05
-2.03069e-05
3.13312e-05
-1.86218e-05
2.71127e-05
-1.37817e-05
6.9407e-06
2.47023e-05
-6.46042e-06
3.10198e-05
1.30473e-05
-5.37635e-06
-0.01092
-0.0105273
-0.0102203
-0.0100074
-0.00988964
-0.00987351
-0.00998971
-0.0102194
-0.0105568
-0.0109783
-0.0114624
-0.0119589
-0.0124051
-0.0127235
-0.0128607
-0.012827
-0.0126325
-0.0122911
-0.0118513
-0.0113753
0.00234206
0.00229775
0.00216699
0.00200551
0.00185135
0.00176011
0.00169074
0.00160527
0.00148295
0.00132865
0.00112682
0.000903922
0.000714386
0.000619612
0.000679339
0.000943545
0.00131977
0.001713
0.00204643
0.0022637
-0.002348
-0.00210708
-0.00191498
-0.00177307
-0.00171798
-0.0017696
-0.00189434
-0.00204092
-0.00225594
-0.00250931
-0.00283894
-0.00319
-0.00349549
-0.00367091
-0.00371401
-0.00364568
-0.00346573
-0.00319496
-0.00289877
-0.0026112
0.00288684
0.00295354
0.00298073
0.00300072
0.00300727
0.00300903
0.00294317
0.00286604
0.00270035
0.00250862
0.00218194
0.00181292
0.00150335
0.00136854
0.00149111
0.00174622
0.00208155
0.00238522
0.0026196
0.00278433
-0.000470394
-0.000319827
-0.000244168
-0.000194305
-0.000229487
-0.000243394
-0.000303309
-0.000348599
-0.00050228
-0.000696347
-0.00111404
-0.00161867
-0.00205065
-0.00228781
-0.00231835
-0.00214087
-0.00178581
-0.0013783
-0.000996732
-0.000688083
0.00200495
0.00210807
0.00215993
0.00220686
0.00220419
0.00219487
0.00211264
0.00204161
0.00184707
0.00162448
0.0011152
0.000582849
0.000205006
0.000138302
0.000344946
0.00069839
0.00107532
0.00140371
0.00166893
0.00186865
5.17675e-05
9.73925e-05
0.000102872
0.0001085
8.68405e-05
0.000109349
7.92893e-05
7.21597e-05
-7.36305e-05
-0.000281939
-0.000881177
-0.00151689
-0.0019189
-0.0019824
-0.00169653
-0.00125063
-0.000796352
-0.000440801
-0.000188341
-3.11246e-05
0.00124313
0.00131391
0.00134715
0.0013817
0.00135783
0.00134435
0.00126776
0.00120204
0.00101519
0.000765789
0.000120736
-0.000469955
-0.000728829
-0.000552887
-0.000167398
0.000234486
0.000590112
0.000842284
0.00102785
0.00115558
0.000167715
0.000178509
0.00016686
0.000168632
0.000161396
0.000185671
0.000165782
0.00016069
3.8081e-05
-0.000182538
-0.000857118
-0.00148562
-0.00169068
-0.00143278
-0.000958283
-0.000552042
-0.000229666
-3.82057e-05
8.32752e-05
0.000143741
0.000735917
0.000776276
0.000792731
0.000808616
0.000786114
0.000771007
0.000711444
0.000656393
0.000513174
0.000286714
-0.000334451
-0.000835689
-0.000840242
-0.000543348
-0.000127576
0.000165358
0.000393402
0.000523669
0.000623436
0.000687942
0.000175259
0.000179525
0.000169671
0.000175699
0.00017045
0.000188735
0.000174077
0.000177803
9.63512e-05
-4.87355e-05
-0.000620727
-0.00114775
-0.00108491
-0.000784159
-0.000402981
-0.000171952
3.63407e-06
8.48874e-05
0.000143021
0.000166143
0.000432283
0.000453275
0.000459328
0.000465625
0.000446616
0.000433678
0.000390045
0.000353932
0.000262861
0.000136562
-0.000325883
-0.000615187
-0.000500546
-0.000234417
3.51377e-05
0.000169934
0.000281303
0.000329384
0.00037872
0.000407315
0.000153561
0.000158447
0.000153718
0.000161226
0.000156588
0.000172072
0.000162858
0.000189152
0.000154615
0.000179361
-0.000198941
-0.000571817
-0.000484551
-0.000324342
-0.000116152
-2.54967e-05
6.52279e-05
9.73082e-05
0.000132796
0.000145216
0.000259896
0.000270542
0.000271356
0.000273787
0.000257619
0.000247546
0.000214702
0.000195918
0.000149226
0.000140344
-8.10862e-05
-0.000196559
-0.000123452
-8.57727e-06
0.000112214
0.000142882
0.000193824
0.000206068
0.000233645
0.000246106
0.000126102
0.000132
0.000130923
0.000138103
0.000134263
0.000147828
0.000143502
0.000184491
0.000190924
0.000364906
0.000229025
-0.00014574
-0.000153742
-0.000139127
-4.80815e-05
-1.07975e-05
5.37415e-05
7.47059e-05
0.000105335
0.000116264
0.000164836
0.000170546
0.000169339
0.000170083
0.000156475
0.000148114
0.00012123
0.000108697
7.73562e-05
0.000144314
0.000251661
8.88739e-06
-2.2363e-05
-1.47555e-05
5.41251e-05
6.74038e-05
0.000114256
0.000124906
0.00014801
0.000155628
0.000101787
0.000107341
0.000107846
0.000113561
0.000110296
0.000119774
0.000116052
0.000140938
0.000130223
0.000185847
0.000109122
-6.05938e-05
-5.44852e-05
-7.58679e-05
-1.47483e-05
-4.52647e-06
4.22511e-05
5.66563e-05
8.25975e-05
9.2063e-05
0.000113548
0.000116522
0.000114828
0.000114806
0.00010383
9.66885e-05
7.56954e-05
6.2737e-05
4.11357e-05
4.31253e-05
7.54643e-05
4.99428e-06
2.94995e-05
2.18305e-05
6.16356e-05
5.81328e-05
8.64041e-05
8.8165e-05
0.000103782
0.000107414
8.32599e-05
8.74535e-05
8.8246e-05
9.21344e-05
8.91522e-05
9.47739e-05
9.20066e-05
0.000104113
9.67485e-05
0.000106342
6.37771e-05
-2.53691e-05
-1.70439e-05
-4.09894e-05
4.33464e-07
3.53754e-06
3.79544e-05
4.74457e-05
6.78007e-05
7.49198e-05
8.54514e-05
8.68727e-05
8.53742e-05
8.4972e-05
7.64797e-05
7.06466e-05
5.49982e-05
4.30375e-05
2.73026e-05
1.71884e-05
3.12715e-05
9.26419e-06
3.98846e-05
3.12248e-05
5.92958e-05
5.15305e-05
7.02087e-05
6.87137e-05
7.95625e-05
8.11033e-05
7.02973e-05
7.28085e-05
7.34131e-05
7.56392e-05
7.25749e-05
7.53614e-05
7.2948e-05
7.74765e-05
7.37835e-05
7.02018e-05
4.91124e-05
-5.24591e-06
8.38415e-07
-1.92065e-05
9.94277e-06
1.09676e-05
3.65882e-05
4.31555e-05
5.87001e-05
6.34976e-05
6.95589e-05
6.99465e-05
6.89511e-05
6.83428e-05
6.19077e-05
5.7478e-05
4.62456e-05
3.61118e-05
2.57969e-05
1.43552e-05
2.29274e-05
1.4317e-05
4.09741e-05
3.31271e-05
5.39336e-05
4.65129e-05
5.97143e-05
5.77761e-05
6.56925e-05
6.62286e-05
6.18057e-05
6.26064e-05
6.31105e-05
6.39505e-05
6.08019e-05
6.16473e-05
5.91728e-05
5.9228e-05
5.82463e-05
5.03343e-05
4.20227e-05
6.48283e-06
1.26894e-05
-2.57775e-06
1.86311e-05
1.87794e-05
3.74303e-05
4.20513e-05
5.35147e-05
5.63529e-05
6.05278e-05
5.97949e-05
5.94685e-05
5.85911e-05
5.34792e-05
5.02608e-05
4.30823e-05
3.41707e-05
2.88243e-05
1.7818e-05
2.49505e-05
1.84707e-05
3.97372e-05
3.22506e-05
4.8544e-05
4.30122e-05
5.26564e-05
5.15172e-05
5.75095e-05
5.73215e-05
5.65465e-05
5.56562e-05
5.64194e-05
5.62569e-05
5.28731e-05
5.27093e-05
5.01766e-05
4.72823e-05
4.83412e-05
3.90299e-05
3.81069e-05
1.40451e-05
2.17802e-05
1.02558e-05
2.62017e-05
2.61127e-05
3.90685e-05
4.25708e-05
5.078e-05
5.19007e-05
5.53269e-05
5.33548e-05
5.38466e-05
5.24955e-05
4.82264e-05
4.63873e-05
4.14461e-05
3.36375e-05
3.28974e-05
2.13423e-05
2.94738e-05
2.10072e-05
3.84389e-05
3.13627e-05
4.41716e-05
4.09122e-05
4.79826e-05
4.8096e-05
5.25239e-05
5.17657e-05
5.31916e-05
5.10698e-05
5.2486e-05
5.11204e-05
4.79165e-05
4.73349e-05
4.51932e-05
3.98718e-05
4.28068e-05
3.25578e-05
3.68784e-05
1.92813e-05
2.88111e-05
1.90427e-05
3.20143e-05
3.19384e-05
4.07102e-05
4.38211e-05
4.91225e-05
4.92461e-05
5.24904e-05
4.85818e-05
5.05715e-05
4.86924e-05
4.45382e-05
4.37806e-05
4.04495e-05
3.28602e-05
3.59096e-05
2.36423e-05
3.33369e-05
2.27063e-05
3.8095e-05
3.06898e-05
4.15778e-05
4.02095e-05
4.46163e-05
4.64727e-05
4.96174e-05
4.80605e-05
5.19006e-05
4.76834e-05
5.04008e-05
4.77939e-05
4.41927e-05
4.49322e-05
4.21934e-05
3.53105e-05
4.14117e-05
2.84203e-05
3.79538e-05
2.17814e-05
3.40216e-05
2.50339e-05
3.5629e-05
3.66374e-05
4.16118e-05
4.52812e-05
4.80486e-05
4.69602e-05
5.04374e-05
4.50451e-05
4.89045e-05
4.57007e-05
4.1878e-05
4.23385e-05
3.99795e-05
3.09192e-05
3.82077e-05
2.39293e-05
3.65685e-05
2.31878e-05
3.89017e-05
2.97031e-05
3.996e-05
4.00515e-05
4.23846e-05
4.60555e-05
4.72466e-05
4.5544e-05
5.16586e-05
4.40187e-05
4.96344e-05
4.63008e-05
4.11576e-05
4.33947e-05
4.08385e-05
3.20571e-05
4.17307e-05
2.57031e-05
3.98946e-05
2.28913e-05
3.79324e-05
2.8014e-05
3.82635e-05
4.01688e-05
4.08674e-05
4.67759e-05
4.79056e-05
4.48537e-05
4.98138e-05
4.13678e-05
4.81625e-05
4.36844e-05
3.86233e-05
4.21987e-05
3.9296e-05
2.82739e-05
4.07716e-05
2.17689e-05
3.98918e-05
2.16428e-05
3.9882e-05
2.84805e-05
3.84256e-05
4.07707e-05
3.99239e-05
4.62503e-05
4.54494e-05
4.24252e-05
5.15998e-05
4.10741e-05
4.99187e-05
4.4399e-05
3.83238e-05
4.35594e-05
3.99615e-05
2.83249e-05
4.33642e-05
2.26152e-05
4.2658e-05
2.20822e-05
4.14492e-05
2.84568e-05
3.91691e-05
4.24906e-05
3.98863e-05
4.83892e-05
4.67192e-05
4.26663e-05
5.03388e-05
3.62837e-05
4.8469e-05
4.25427e-05
3.36877e-05
4.31872e-05
3.85265e-05
2.39168e-05
4.32395e-05
1.78077e-05
4.29201e-05
1.84299e-05
4.14766e-05
2.57311e-05
3.65916e-05
4.22286e-05
3.58906e-05
4.69476e-05
4.41154e-05
3.78434e-05
5.20162e-05
3.68466e-05
5.11717e-05
4.27304e-05
3.43913e-05
4.51172e-05
3.89405e-05
2.33097e-05
4.65234e-05
1.75392e-05
4.65005e-05
1.83948e-05
4.46284e-05
2.61847e-05
3.89384e-05
4.42601e-05
3.69614e-05
5.0286e-05
4.51233e-05
3.93662e-05
5.08678e-05
2.98589e-05
5.04214e-05
4.02485e-05
2.70819e-05
4.57288e-05
3.73161e-05
1.64662e-05
4.68386e-05
1.05862e-05
4.68248e-05
1.20219e-05
4.37986e-05
2.02027e-05
3.40259e-05
4.32194e-05
3.03353e-05
4.86934e-05
4.12227e-05
3.19226e-05
5.3473e-05
3.04348e-05
5.36416e-05
4.0538e-05
2.73788e-05
4.82586e-05
3.73061e-05
1.61464e-05
5.02442e-05
1.01942e-05
5.04713e-05
1.19471e-05
4.74263e-05
2.03858e-05
3.74049e-05
4.62756e-05
3.13141e-05
5.25976e-05
4.24884e-05
3.326e-05
5.28013e-05
1.80014e-05
5.55152e-05
3.78351e-05
1.43108e-05
5.20211e-05
3.56348e-05
2.03024e-06
5.35961e-05
-3.12245e-06
5.3477e-05
-8.25936e-07
4.83582e-05
8.31607e-06
2.95385e-05
4.58108e-05
1.91668e-05
5.27725e-05
3.76004e-05
2.10553e-05
5.48542e-05
1.96547e-05
5.81992e-05
3.62785e-05
1.57832e-05
5.43763e-05
3.38145e-05
3.42658e-06
5.55588e-05
-2.32284e-06
5.54467e-05
1.32062e-07
5.05441e-05
9.18777e-06
3.36527e-05
4.73717e-05
2.08351e-05
5.59562e-05
3.69784e-05
2.32284e-05
5.8097e-05
-4.82299e-06
6.84629e-05
3.11615e-05
-1.29535e-05
6.83491e-05
3.03374e-05
-2.74377e-05
6.67436e-05
-3.02518e-05
6.54584e-05
-2.68365e-05
5.73417e-05
-1.70768e-05
2.14659e-05
5.16115e-05
-3.20837e-06
6.32637e-05
2.90092e-05
-1.4155e-06
-0.013442
-0.0128925
-0.0124418
-0.0121128
-0.0119191
-0.0118886
-0.0120396
-0.01235
-0.0128093
-0.0133822
-0.0140335
-0.0146956
-0.0152876
-0.0157156
-0.0159132
-0.0158877
-0.0156529
-0.0152283
-0.0146709
-0.0140528
0.00196463
0.00202222
0.00195531
0.00182004
0.00166139
0.00154389
0.00140717
0.00123176
0.000996603
0.000711639
0.000365645
-1.21593e-06
-0.000313434
-0.000487123
-0.000443767
-0.000133562
0.000345533
0.000881633
0.00137593
0.00175067
-0.00274905
-0.00243623
-0.00221374
-0.00207288
-0.00205333
-0.00215648
-0.00235014
-0.00258641
-0.0029178
-0.00331239
-0.00381034
-0.00433267
-0.00477758
-0.00502112
-0.00505487
-0.00487875
-0.00452447
-0.00405473
-0.00357022
-0.00312655
0.00335873
0.003439
0.00346039
0.00346582
0.00344503
0.00340298
0.00327843
0.00312429
0.00284723
0.00251239
0.00199899
0.00144637
0.00101717
0.00087808
0.00112418
0.00156616
0.00211035
0.00259699
0.00296618
0.00321488
-0.00029819
-0.000136297
-6.22582e-05
-2.2659e-05
-8.09233e-05
-0.000119738
-0.000227707
-0.000339216
-0.00060388
-0.00095205
-0.00158868
-0.00229966
-0.00283118
-0.00304149
-0.00291564
-0.00252286
-0.00196154
-0.00139527
-0.000910785
-0.000543948
0.00245429
0.00257513
0.00263272
0.00268087
0.00265943
0.00262714
0.00249669
0.00236065
0.00205131
0.00166545
0.000913695
0.000185489
-0.000247286
-0.000197188
0.000200844
0.000751332
0.00128427
0.00171791
0.00204999
0.00229187
0.000278561
0.000338204
0.000346892
0.000350988
0.000320063
0.000329018
0.000261638
0.000201264
-5.32028e-05
-0.000428074
-0.00129293
-0.00211979
-0.00254299
-0.0024592
-0.00196992
-0.00134569
-0.000761999
-0.000324177
-1.80573e-05
0.00017414
0.00156805
0.00165747
0.00169803
0.00173542
0.00169925
0.00166996
0.00155462
0.0014351
0.00114115
0.000722963
-0.000192426
-0.000945152
-0.00116432
-0.000830993
-0.000256763
0.000283956
0.000739336
0.00105713
0.00129163
0.00145516
0.000361592
0.000384159
0.000374899
0.000379227
0.000364134
0.000380004
0.000330973
0.00028391
6.73e-05
-0.000314105
-0.0012602
-0.0020342
-0.00216392
-0.00173825
-0.00109383
-0.000574074
-0.000170053
7.32988e-05
0.000233749
0.000320633
0.000956972
0.00101008
0.0010306
0.00104803
0.00101645
0.000990846
0.000902468
0.00080755
0.000579315
0.000205143
-0.000670198
-0.00127546
-0.00117942
-0.000729426
-0.00017542
0.00020275
0.000496026
0.000668253
0.000802669
0.000891616
0.000323525
0.000335948
0.000327381
0.000335949
0.00032451
0.000337856
0.000302489
0.00027927
0.000129823
-0.000137457
-0.000942381
-0.0015548
-0.00137921
-0.000949171
-0.000455146
-0.000160908
6.62288e-05
0.000178267
0.000262804
0.000302911
0.000580453
0.000609298
0.000617049
0.000624551
0.000598491
0.000579141
0.000515934
0.000455881
0.000309286
8.35266e-05
-0.000575078
-0.000903773
-0.000686168
-0.00031797
3.44499e-05
0.000210779
0.000360697
0.000430845
0.000501965
0.000544794
0.000262369
0.00027299
0.000269084
0.00027881
0.00026946
0.000283067
0.000260929
0.000276869
0.00020423
0.000169285
-0.000372879
-0.000787882
-0.000615322
-0.000388127
-0.000117548
-4.27876e-08
0.000121592
0.000169769
0.000222994
0.000245997
0.000360668
0.000376299
0.000377712
0.000381233
0.000359551
0.000345962
0.00030035
0.000271106
0.000196042
0.000144234
-0.000190498
-0.00032026
-0.000182626
-2.4427e-05
0.000137081
0.000181096
0.000254495
0.000277169
0.000319101
0.000339906
0.000205546
0.000215679
0.000215231
0.000224325
0.000216886
0.000230453
0.000218599
0.000260423
0.000252694
0.00042249
0.000205148
-0.000227
-0.000192774
-0.000161042
-3.64813e-05
1.04279e-05
9.67706e-05
0.000127263
0.000171399
0.000189572
0.000235992
0.000245085
0.000244046
0.000245719
0.000227671
0.000217267
0.000181298
0.000164927
0.000119438
0.000186823
0.000272619
-3.01649e-05
-4.04496e-05
-2.46775e-05
7.09381e-05
9.11168e-05
0.000156611
0.00017415
0.000208504
0.000221692
0.000161141
0.000169797
0.000170736
0.00017794
0.000171759
0.000181533
0.000172522
0.000199025
0.000179205
0.00023901
0.000132501
-8.75925e-05
-6.849e-05
-9.13759e-05
-6.2473e-06
8.91904e-06
7.3801e-05
9.50085e-05
0.000131902
0.000146591
0.000166641
0.000171909
0.000170197
0.000170866
0.000156277
0.000147655
0.000119779
0.000103944
7.31149e-05
7.36782e-05
9.74578e-05
-5.20027e-06
3.11402e-05
2.06968e-05
7.89079e-05
7.71292e-05
0.000119406
0.000125164
0.000149379
0.000156697
0.000129594
0.000135895
0.000136912
0.000141804
0.000136341
0.000142001
0.000135233
0.000147509
0.000134151
0.000142411
8.58969e-05
-3.34108e-05
-1.68796e-05
-4.67041e-05
1.15796e-05
1.64478e-05
6.44813e-05
7.81955e-05
0.000106914
0.000117567
0.000127581
0.00013045
0.000128852
0.000128871
0.000117434
0.000110393
8.95449e-05
7.47235e-05
5.25981e-05
3.84813e-05
4.84524e-05
9.91174e-06
5.04869e-05
3.69527e-05
7.82514e-05
6.9811e-05
9.86735e-05
9.92504e-05
0.000116495
0.000120367
0.00010845
0.0001122
0.000112875
0.000115647
0.000110381
0.000112917
0.000107345
0.000110894
0.000103356
9.60657e-05
6.83754e-05
-4.2305e-06
8.42857e-06
-1.75025e-05
2.39918e-05
2.52452e-05
6.09433e-05
7.0058e-05
9.18289e-05
9.88538e-05
0.000105036
0.000106154
0.000105066
0.000104606
9.57397e-05
9.03206e-05
7.52247e-05
6.23075e-05
4.79318e-05
3.17965e-05
3.8936e-05
2.06142e-05
5.5651e-05
4.30519e-05
7.3728e-05
6.49773e-05
8.5691e-05
8.48953e-05
9.75708e-05
9.94966e-05
9.49512e-05
9.62063e-05
9.67534e-05
9.77297e-05
9.25774e-05
9.29953e-05
8.79835e-05
8.63404e-05
8.31867e-05
7.09149e-05
6.01615e-05
1.28544e-05
2.48793e-05
4.6299e-06
3.51522e-05
3.4951e-05
6.09719e-05
6.72018e-05
8.32183e-05
8.73121e-05
9.20348e-05
9.13358e-05
9.10387e-05
9.00216e-05
8.28067e-05
7.88179e-05
6.88657e-05
5.72111e-05
4.97899e-05
3.40545e-05
4.16251e-05
2.8227e-05
5.65676e-05
4.484e-05
6.88141e-05
6.20892e-05
7.72821e-05
7.69681e-05
8.64779e-05
8.69706e-05
8.67186e-05
8.55293e-05
8.64822e-05
8.60866e-05
8.08092e-05
8.02208e-05
7.56385e-05
7.05373e-05
7.08686e-05
5.69885e-05
5.62863e-05
2.39288e-05
3.72284e-05
2.15302e-05
4.47145e-05
4.42094e-05
6.24146e-05
6.71185e-05
7.8574e-05
8.02009e-05
8.45222e-05
8.18673e-05
8.2668e-05
8.08393e-05
7.46544e-05
7.23508e-05
6.53395e-05
5.47434e-05
5.3695e-05
3.72511e-05
4.74234e-05
3.29764e-05
5.67489e-05
4.58603e-05
6.48586e-05
6.08536e-05
7.1921e-05
7.29138e-05
7.98351e-05
7.91992e-05
8.16502e-05
7.84796e-05
8.04579e-05
7.84341e-05
7.34055e-05
7.25904e-05
6.87913e-05
6.07645e-05
6.43751e-05
4.91954e-05
5.5815e-05
3.15058e-05
4.67143e-05
3.31286e-05
5.20203e-05
5.17294e-05
6.40683e-05
6.83891e-05
7.58336e-05
7.59049e-05
8.04331e-05
7.49601e-05
7.78202e-05
7.50634e-05
6.89919e-05
6.81955e-05
6.32315e-05
5.25725e-05
5.69891e-05
3.93317e-05
5.26453e-05
3.60608e-05
5.77056e-05
4.6546e-05
6.27241e-05
6.11519e-05
6.81394e-05
7.12567e-05
7.59917e-05
7.40405e-05
7.95262e-05
7.32918e-05
7.72619e-05
7.34946e-05
6.79476e-05
6.90221e-05
6.47559e-05
5.45951e-05
6.30497e-05
4.41863e-05
5.80798e-05
3.52886e-05
5.38307e-05
4.09322e-05
5.66254e-05
5.78816e-05
6.49011e-05
7.01955e-05
7.41077e-05
7.24246e-05
7.77254e-05
6.97359e-05
7.5379e-05
7.07382e-05
6.48348e-05
6.59536e-05
6.21349e-05
4.93194e-05
5.98821e-05
3.90883e-05
5.72556e-05
3.71449e-05
5.97686e-05
4.63161e-05
6.14708e-05
6.1951e-05
6.5506e-05
7.11442e-05
7.29784e-05
7.04088e-05
7.89824e-05
6.79696e-05
7.60524e-05
7.10074e-05
6.34525e-05
6.6953e-05
6.28535e-05
4.993e-05
6.39821e-05
4.05505e-05
6.13936e-05
3.6808e-05
5.92844e-05
4.4735e-05
5.98737e-05
6.26158e-05
6.37308e-05
7.22066e-05
7.35604e-05
6.92298e-05
7.69194e-05
6.43891e-05
7.44075e-05
6.77841e-05
6.00593e-05
6.56399e-05
6.1012e-05
4.51878e-05
6.33626e-05
3.5803e-05
6.20488e-05
3.53057e-05
6.19006e-05
4.51793e-05
6.00242e-05
6.35759e-05
6.2338e-05
7.18121e-05
7.0624e-05
6.60435e-05
7.89259e-05
6.33381e-05
7.64133e-05
6.82568e-05
5.90325e-05
6.72359e-05
6.15716e-05
4.44609e-05
6.66251e-05
3.60276e-05
6.56865e-05
3.54249e-05
6.41768e-05
4.5025e-05
6.08862e-05
6.59033e-05
6.194e-05
7.44622e-05
7.18191e-05
6.57427e-05
7.75903e-05
5.72479e-05
7.49812e-05
6.58831e-05
5.31492e-05
6.70489e-05
5.98171e-05
3.87535e-05
6.70164e-05
2.99486e-05
6.66366e-05
3.08233e-05
6.46493e-05
4.1566e-05
5.78808e-05
6.58722e-05
5.69575e-05
7.31225e-05
6.86269e-05
5.97459e-05
7.95731e-05
5.68956e-05
7.82486e-05
6.57519e-05
5.29411e-05
6.95404e-05
6.00626e-05
3.69713e-05
7.12217e-05
2.85743e-05
7.12855e-05
2.99488e-05
6.86573e-05
4.14345e-05
6.02787e-05
6.84769e-05
5.74258e-05
7.7169e-05
6.94026e-05
6.05873e-05
7.84262e-05
4.80968e-05
7.78132e-05
6.26228e-05
4.37733e-05
7.07176e-05
5.80218e-05
2.81757e-05
7.22401e-05
1.96715e-05
7.23669e-05
2.18412e-05
6.81949e-05
3.38864e-05
5.45131e-05
6.75504e-05
4.91841e-05
7.57484e-05
6.45991e-05
5.1398e-05
8.1528e-05
4.73481e-05
8.19355e-05
6.24934e-05
4.26175e-05
7.42239e-05
5.76829e-05
2.61592e-05
7.67991e-05
1.76218e-05
7.72393e-05
2.03193e-05
7.27828e-05
3.28169e-05
5.78021e-05
7.12952e-05
4.90615e-05
8.05733e-05
6.54636e-05
5.16155e-05
8.09509e-05
3.2208e-05
8.46704e-05
5.90076e-05
2.66914e-05
7.92574e-05
5.54796e-05
8.90157e-06
8.13411e-05
1.27168e-06
8.1369e-05
4.68781e-06
7.429e-05
1.80436e-05
4.85514e-05
7.09789e-05
3.43315e-05
8.12212e-05
5.9339e-05
3.68402e-05
8.35412e-05
3.23102e-05
8.85182e-05
5.67138e-05
2.6368e-05
8.29817e-05
5.30118e-05
8.2844e-06
8.45203e-05
9.24541e-08
8.45284e-05
3.81206e-06
7.73877e-05
1.71947e-05
5.24699e-05
7.31429e-05
3.45514e-05
8.54598e-05
5.79373e-05
3.76078e-05
8.71064e-05
4.53717e-06
0.000100513
5.0601e-05
-6.16042e-06
9.93423e-05
4.88824e-05
-2.66683e-05
9.75919e-05
-3.1615e-05
9.62358e-05
-2.67854e-05
8.51847e-05
-1.26573e-05
3.85178e-05
7.79253e-05
7.31393e-06
9.38385e-05
4.83669e-05
9.77963e-06
-0.0148489
-0.014223
-0.0137077
-0.0133309
-0.0131147
-0.013095
-0.0132801
-0.0136476
-0.0141839
-0.0148467
-0.0155924
-0.0163427
-0.0170057
-0.0174781
-0.017689
-0.0176462
-0.0173668
-0.0168773
-0.0162425
-0.0155418
0.00145571
0.00156464
0.00153411
0.00141931
0.00126979
0.00114414
0.000967178
0.000734355
0.000423793
5.16814e-05
-0.000387705
-0.00084234
-0.00122202
-0.00143057
-0.001379
-0.00102523
-0.000477699
0.000141738
0.00072177
0.0011755
-0.00309928
-0.00273831
-0.00249309
-0.00234932
-0.00235439
-0.00249138
-0.00273301