/*--------------------------------*- C++ -*----------------------------------*\
| =========                 |                                                 |
| \\      /  F ield         | OpenFOAM: The Open Source CFD Toolbox           |
|  \\    /   O peration     | Version:  2.4.0                                 |
|   \\  /    A nd           | Web:      www.OpenFOAM.org                      |
|    \\/     M anipulation  |                                                 |
\*---------------------------------------------------------------------------*/
FoamFile
{
    version     2.0;
    format      ascii;
    class       volScalarField;
    location    "290";
    object      p;
}
// * * * * * * * * * * * * * * * * * * * * * * * * * * * * * * * * * * * * * //

dimensions      [0 2 -2 0 0 0 0];

internalField   nonuniform List<scalar> 
283312
(
-0.00624471
-0.00630448
-0.00654437
-0.00688426
-0.00723608
-0.00753043
-0.00775929
-0.00791822
-0.00804001
-0.00814863
-0.00826461
-0.00837488
-0.00844738
-0.00842669
-0.00827828
-0.0080091
-0.00763113
-0.00718026
-0.00673692
-0.00639871
0.00214207
0.00164134
0.00121666
0.000948652
0.000850038
0.000915633
0.00105859
0.00119928
0.00130959
0.00139739
0.00146524
0.00154485
0.00167361
0.00187407
0.00215801
0.00252423
0.00283734
0.00298652
0.00290914
0.00260447
-0.00231368
-0.00215824
-0.00193089
-0.00168767
-0.00149328
-0.00139496
-0.00137642
-0.00138277
-0.00143201
-0.00147378
-0.00150399
-0.00148267
-0.00141209
-0.0013149
-0.00127236
-0.00138321
-0.00162828
-0.00192506
-0.00218729
-0.0023282
0.00147184
0.00164616
0.00179086
0.00190623
0.00198937
0.00205823
0.00206488
0.00207105
0.00203755
0.00204837
0.00206626
0.00211398
0.00214115
0.00209639
0.00196609
0.00172359
0.00147435
0.0012936
0.00124273
0.00132028
-0.000746276
-0.000547552
-0.000430569
-0.000352019
-0.000348537
-0.000335834
-0.000347503
-0.00033395
-0.000363868
-0.000340432
-0.000348203
-0.000403869
-0.00058372
-0.000904786
-0.00133114
-0.00166969
-0.00175843
-0.00161543
-0.0013294
-0.00101282
0.0011978
0.00130723
0.00136502
0.00141063
0.00142443
0.0014318
0.00139729
0.00138405
0.00131967
0.00132961
0.00127545
0.00115186
0.00087289
0.000510153
0.000243114
0.000174238
0.000305663
0.000550851
0.000817206
0.00104105
-0.000151866
-0.000112125
-0.000104981
-9.89034e-05
-0.000110089
-8.50229e-05
-8.55283e-05
-5.71869e-05
-8.86727e-05
-6.37638e-05
-0.000176616
-0.000445086
-0.000859998
-0.00127036
-0.00140529
-0.00125332
-0.000940176
-0.00062705
-0.000384596
-0.000231447
0.000759331
0.000808314
0.000831778
0.000856673
0.000845075
0.000841481
0.000803974
0.000783464
0.000714822
0.000704824
0.000549006
0.000239059
-0.000163693
-0.000357373
-0.000309085
-8.04619e-05
0.000202689
0.000428899
0.000590845
0.000694308
-1.40259e-06
5.93631e-07
-1.00821e-05
-1.15099e-05
-1.28874e-05
8.96603e-06
1.07212e-05
3.03671e-05
2.59828e-06
6.10054e-06
-0.000186425
-0.000590081
-0.000991515
-0.0010764
-0.000866325
-0.000578768
-0.000315922
-0.000152242
-5.62539e-05
-1.38982e-05
0.00043925
0.000463772
0.000474509
0.00048501
0.000472248
0.000463874
0.000433544
0.000411155
0.000358078
0.000341057
0.000162151
-0.000206116
-0.000456503
-0.000443385
-0.000213792
9.41203e-06
0.000192835
0.000297693
0.000368275
0.000409877
4.32672e-05
4.14141e-05
3.26739e-05
3.46329e-05
3.39068e-05
4.89014e-05
4.91972e-05
6.52978e-05
4.8144e-05
7.27813e-05
-0.000103286
-0.000531428
-0.000711955
-0.000630457
-0.000389035
-0.000205352
-6.81646e-05
-5.41393e-06
3.14879e-05
4.22862e-05
0.000249796
0.000261511
0.000265278
0.000268435
0.000257305
0.000248549
0.000225042
0.000207375
0.000172185
0.000191087
5.50937e-05
-0.000225927
-0.000330109
-0.000224439
-4.49477e-05
6.86139e-05
0.000153804
0.000190052
0.000220101
0.000235994
5.46452e-05
5.47053e-05
5.02882e-05
5.37957e-05
5.262e-05
6.38673e-05
6.34807e-05
8.69303e-05
8.35287e-05
0.000189734
7.58033e-05
-0.000270928
-0.000354682
-0.000289467
-0.000144717
-6.34856e-05
4.16099e-06
2.81217e-05
4.80883e-05
5.27494e-05
0.000144962
0.000150114
0.000150286
0.000150589
0.000140831
0.000133045
0.000113965
0.000101743
8.12443e-05
0.000138389
9.78738e-05
-5.09614e-05
-0.000107992
-5.2934e-05
3.37328e-05
7.0442e-05
0.000107852
0.000117567
0.000132435
0.000138196
5.26447e-05
5.44131e-05
5.29691e-05
5.65645e-05
5.53736e-05
6.4369e-05
6.46621e-05
9.31728e-05
0.000105129
0.000279951
0.000267032
-5.05857e-05
-0.000136928
-0.000139496
-7.51232e-05
-3.49209e-05
1.08959e-05
2.66186e-05
4.37545e-05
4.86771e-05
8.87879e-05
9.09806e-05
8.97514e-05
8.89737e-05
8.06428e-05
7.37722e-05
5.746e-05
4.68223e-05
2.89147e-05
8.59474e-05
0.000196009
3.72673e-05
-1.92775e-05
-1.93798e-05
2.14647e-05
3.4826e-05
6.3267e-05
7.00276e-05
8.17012e-05
8.47433e-05
4.62204e-05
4.84481e-05
4.8367e-05
5.12338e-05
5.01441e-05
5.61602e-05
5.59738e-05
7.23702e-05
6.85318e-05
0.000107143
6.67112e-05
-3.06133e-05
-3.99731e-05
-5.47512e-05
-2.08946e-05
-1.19663e-05
1.46376e-05
2.33521e-05
3.70889e-05
4.16621e-05
5.94023e-05
6.01487e-05
5.86364e-05
5.75544e-05
5.08385e-05
4.4979e-05
3.22211e-05
2.1815e-05
9.81885e-06
9.15256e-06
4.09379e-05
1.00527e-05
1.90744e-05
1.66807e-05
3.64299e-05
3.51883e-05
4.90762e-05
4.91628e-05
5.61305e-05
5.7027e-05
3.95147e-05
4.13582e-05
4.16511e-05
4.35268e-05
4.24358e-05
4.58961e-05
4.58598e-05
5.39453e-05
5.15611e-05
5.82966e-05
3.37741e-05
-1.52891e-05
-1.66477e-05
-3.03794e-05
-8.29796e-06
-4.53097e-06
1.45564e-05
2.06053e-05
3.15456e-05
3.53058e-05
4.37526e-05
4.38559e-05
4.25581e-05
4.14783e-05
3.634e-05
3.16318e-05
2.21645e-05
1.32742e-05
4.52006e-06
-2.30354e-06
1.17183e-05
6.61748e-06
2.29187e-05
2.06849e-05
3.42703e-05
3.03587e-05
3.89336e-05
3.74412e-05
4.20833e-05
4.21697e-05
3.41057e-05
3.52212e-05
3.54774e-05
3.64492e-05
3.51483e-05
3.67779e-05
3.65667e-05
3.9864e-05
3.9186e-05
3.79808e-05
2.55629e-05
-5.05362e-06
-6.04211e-06
-1.69974e-05
-1.85212e-06
5.0268e-07
1.47393e-05
1.92916e-05
2.78076e-05
3.05284e-05
3.50685e-05
3.48513e-05
3.39547e-05
3.29907e-05
2.9184e-05
2.56491e-05
1.88944e-05
1.18145e-05
5.95853e-06
-7.61461e-07
6.96517e-06
7.15552e-06
2.19768e-05
1.99013e-05
2.99262e-05
2.6188e-05
3.20857e-05
3.0625e-05
3.401e-05
3.38622e-05
3.02733e-05
3.05761e-05
3.07777e-05
3.10087e-05
2.9543e-05
2.99094e-05
2.92841e-05
2.97745e-05
3.01752e-05
2.63144e-05
2.12146e-05
9.52784e-07
1.21897e-06
-6.80025e-06
4.00341e-06
5.5347e-06
1.58991e-05
1.92792e-05
2.56276e-05
2.73699e-05
3.01794e-05
2.9559e-05
2.91154e-05
2.82058e-05
2.52643e-05
2.2688e-05
1.84881e-05
1.26084e-05
9.42727e-06
3.38693e-06
8.64741e-06
8.39576e-06
2.01477e-05
1.77492e-05
2.56692e-05
2.2994e-05
2.73158e-05
2.6506e-05
2.91648e-05
2.8852e-05
2.77723e-05
2.72545e-05
2.75669e-05
2.73193e-05
2.56221e-05
2.52976e-05
2.43367e-05
2.29943e-05
2.40516e-05
1.93977e-05
1.83567e-05
4.87845e-06
6.88712e-06
1.12544e-06
9.11656e-06
1.0168e-05
1.73358e-05
1.99024e-05
2.45027e-05
2.53174e-05
2.73364e-05
2.62243e-05
2.62445e-05
2.52488e-05
2.28726e-05
2.12911e-05
1.8446e-05
1.36349e-05
1.29635e-05
6.77076e-06
1.17116e-05
9.16835e-06
1.85318e-05
1.60101e-05
2.21748e-05
2.07771e-05
2.40505e-05
2.40487e-05
2.61283e-05
2.56735e-05
2.60353e-05
2.5056e-05
2.56384e-05
2.47811e-05
2.31974e-05
2.24977e-05
2.16231e-05
1.88e-05
2.04084e-05
1.53681e-05
1.70841e-05
7.72032e-06
1.12575e-05
6.53579e-06
1.30301e-05
1.37457e-05
1.86582e-05
2.0762e-05
2.37664e-05
2.4102e-05
2.57372e-05
2.36939e-05
2.45202e-05
2.34367e-05
2.11644e-05
2.02256e-05
1.84129e-05
1.40685e-05
1.53006e-05
9.00217e-06
1.40961e-05
9.80735e-06
1.76787e-05
1.4762e-05
2.0002e-05
1.95943e-05
2.16701e-05
2.26774e-05
2.43347e-05
2.35328e-05
2.54108e-05
2.3437e-05
2.45799e-05
2.31334e-05
2.13199e-05
2.1351e-05
1.99582e-05
1.63513e-05
1.93505e-05
1.28599e-05
1.73111e-05
9.0645e-06
1.44022e-05
1.03072e-05
1.54387e-05
1.65713e-05
1.94542e-05
2.16107e-05
2.32643e-05
2.29396e-05
2.44081e-05
2.19035e-05
2.35876e-05
2.18818e-05
1.99892e-05
1.9603e-05
1.84865e-05
1.34993e-05
1.6817e-05
9.77841e-06
1.58985e-05
9.97606e-06
1.76844e-05
1.36334e-05
1.86077e-05
1.8872e-05
2.01957e-05
2.2072e-05
2.28095e-05
2.21571e-05
2.5302e-05
2.15498e-05
2.41543e-05
2.25615e-05
1.98423e-05
2.04756e-05
1.92788e-05
1.47962e-05
1.92655e-05
1.14819e-05
1.80577e-05
9.85372e-06
1.66615e-05
1.22855e-05
1.72445e-05
1.86224e-05
1.91841e-05
2.23888e-05
2.33673e-05
2.18946e-05
2.39204e-05
2.00313e-05
2.30517e-05
2.08644e-05
1.83851e-05
1.95926e-05
1.82755e-05
1.24644e-05
1.82959e-05
8.96976e-06
1.76523e-05
9.10591e-06
1.78217e-05
1.27312e-05
1.74154e-05
1.88653e-05
1.87447e-05
2.18513e-05
2.17087e-05
2.04245e-05
2.51441e-05
2.02926e-05
2.42404e-05
2.15874e-05
1.86344e-05
2.05007e-05
1.88983e-05
1.30643e-05
1.99203e-05
1.01343e-05
1.92987e-05
9.74835e-06
1.86367e-05
1.28624e-05
1.79642e-05
1.98393e-05
1.8983e-05
2.31871e-05
2.27632e-05
2.09584e-05
2.41264e-05
1.73395e-05
2.30179e-05
2.04509e-05
1.57807e-05
2.00483e-05
1.80005e-05
1.04643e-05
1.9467e-05
7.23157e-06
1.90482e-05
7.54893e-06
1.83687e-05
1.12326e-05
1.62028e-05
1.94664e-05
1.64816e-05
2.19241e-05
2.10705e-05
1.78756e-05
2.52078e-05
1.84183e-05
2.47437e-05
2.08226e-05
1.69753e-05
2.11764e-05
1.84727e-05
1.08216e-05
2.14399e-05
7.85316e-06
2.11719e-05
8.17889e-06
2.03067e-05
1.2061e-05
1.80538e-05
2.07022e-05
1.77809e-05
2.40744e-05
2.20403e-05
1.95463e-05
2.42106e-05
1.41044e-05
2.3853e-05
1.93027e-05
1.24448e-05
2.12135e-05
1.75059e-05
6.7573e-06
2.11632e-05
3.73293e-06
2.08754e-05
4.37253e-06
1.93605e-05
8.4277e-06
1.46944e-05
1.97639e-05
1.36402e-05
2.26155e-05
1.9549e-05
1.47951e-05
2.58729e-05
1.55712e-05
2.57173e-05
1.985e-05
1.37804e-05
2.24726e-05
1.77652e-05
7.79063e-06
2.30096e-05
4.72107e-06
2.28805e-05
5.46712e-06
2.15464e-05
9.57458e-06
1.74615e-05
2.17116e-05
1.52948e-05
2.50301e-05
2.08702e-05
1.66996e-05
2.51407e-05
7.67288e-06
2.64494e-05
1.83165e-05
5.49925e-06
2.44158e-05
1.69063e-05
-1.0962e-06
2.47059e-05
-3.56802e-06
2.43657e-05
-2.51908e-06
2.17711e-05
2.01572e-06
1.21016e-05
2.11622e-05
7.55071e-06
2.46833e-05
1.78897e-05
8.84729e-06
2.62644e-05
1.04227e-05
2.75593e-05
1.76828e-05
8.3052e-06
2.50729e-05
1.60012e-05
1.84454e-06
2.51938e-05
-1.10829e-06
2.4905e-05
-5.2743e-08
2.27085e-05
4.30498e-06
1.55877e-05
2.19013e-05
1.02405e-05
2.63007e-05
1.80528e-05
1.18632e-05
2.8326e-05
-6.65146e-06
3.41087e-05
1.44761e-05
-1.18201e-05
3.40481e-05
1.38847e-05
-1.97218e-05
3.23666e-05
-2.04713e-05
3.13068e-05
-1.8783e-05
2.70717e-05
-1.39267e-05
6.85813e-06
2.46399e-05
-6.57459e-06
3.09633e-05
1.29803e-05
-5.50021e-06
-0.0109391
-0.0105462
-0.0102395
-0.010027
-0.0099097
-0.00989483
-0.0100127
-0.0102443
-0.0105837
-0.0110072
-0.0114931
-0.0119905
-0.0124369
-0.0127543
-0.0128903
-0.0128553
-0.0126586
-0.0123146
-0.0118726
-0.0113951
0.00233705
0.00229222
0.00216126
0.00199971
0.00184559
0.00175474
0.00168537
0.00159993
0.00147758
0.0013231
0.00112095
0.000897675
0.000707956
0.000613043
0.000673523
0.000939269
0.00131595
0.00170943
0.00204265
0.00225934
-0.00233907
-0.00210035
-0.00191103
-0.0017718
-0.00171927
-0.00177287
-0.00189896
-0.00204692
-0.00226315
-0.00251763
-0.00284811
-0.00319941
-0.00350416
-0.00367768
-0.0037182
-0.00364679
-0.00346298
-0.00318874
-0.00288995
-0.00260142
0.00289573
0.00296096
0.00298679
0.00300562
0.00301141
0.00301233
0.00294609
0.00286855
0.00270249
0.00251029
0.00218307
0.0018139
0.00150526
0.00137204
0.00149674
0.00175386
0.00209086
0.0023956
0.00263027
0.0027944
-0.000464066
-0.000314869
-0.000240493
-0.00019192
-0.000228114
-0.000242782
-0.000303268
-0.000349161
-0.000503476
-0.00069834
-0.00111714
-0.00162218
-0.00205255
-0.00228623
-0.00231384
-0.00213418
-0.00177791
-0.00136999
-0.000988591
-0.000680665
0.00201143
0.00211385
0.00216513
0.00221157
0.00220843
0.00219879
0.00211631
0.00204508
0.0018502
0.00162707
0.00111631
0.000582794
0.000206288
0.000142316
0.000352177
0.000707285
0.00108457
0.00141248
0.00167695
0.00187586
5.52148e-05
0.000100189
0.00010514
0.000110205
8.83133e-05
0.000110618
8.04278e-05
7.32212e-05
-7.29656e-05
-0.000282059
-0.000884307
-0.00152367
-0.00192498
-0.00198476
-0.00169501
-0.00124672
-0.000791516
-0.000435902
-0.000183762
-2.70883e-05
0.00124705
0.00131757
0.00135061
0.00138495
0.00136083
0.00134719
0.00127044
0.00120463
0.00101736
0.000767216
0.000119096
-0.00047577
-0.000736737
-0.000557724
-0.000167801
0.000237334
0.000594401
0.000846849
0.00103229
0.00115974
0.000169606
0.000180091
0.000168196
0.000169758
0.000162454
0.000186707
0.000166802
0.000161772
3.89206e-05
-0.000182244
-0.000859233
-0.00149097
-0.00169874
-0.00143918
-0.000960795
-0.000551621
-0.000227742
-3.58381e-05
8.56564e-05
0.000145895
0.000738103
0.000778392
0.000794794
0.000810555
0.00078796
0.000772791
0.000713117
0.000658056
0.000514519
0.000287682
-0.000335287
-0.000839019
-0.000844693
-0.000547062
-0.000128872
0.000165885
0.000395019
0.000525703
0.000625638
0.000690142
0.000176276
0.000180404
0.000170442
0.000176387
0.00017111
0.000189389
0.000174721
0.000178502
9.69185e-05
-4.83976e-05
-0.000621674
-0.00115051
-0.00108872
-0.000787342
-0.000404443
-0.000172103
4.3212e-06
8.59052e-05
0.000144165
0.000167239
0.000433449
0.000454435
0.00046049
0.000466733
0.000447688
0.000434731
0.000391027
0.000354951
0.000263675
0.000137358
-0.000325996
-0.0006165
-0.00050228
-0.000235963
3.45228e-05
0.000170027
0.000281932
0.000330271
0.000379778
0.000408431
0.000154109
0.000158936
0.000154165
0.000161625
0.000156969
0.000172429
0.000163194
0.000189501
0.000154898
0.000179623
-0.000199334
-0.000572993
-0.000486108
-0.000325686
-0.000116842
-2.56752e-05
6.54559e-05
9.77277e-05
0.000133336
0.000145767
0.000260498
0.000271152
0.000271983
0.000274392
0.000258212
0.000248133
0.000215243
0.000196494
0.000149679
0.000140904
-8.0895e-05
-0.000196986
-0.000124107
-9.23959e-06
0.00011193
0.000142862
0.000194059
0.00020644
0.00023414
0.000246653
0.000126397
0.00013227
0.000131183
0.000138327
0.000134471
0.000147997
0.000143639
0.000184589
0.000190964
0.000364865
0.000228757
-0.000146195
-0.000154216
-0.000139581
-4.8428e-05
-1.09503e-05
5.37867e-05
7.48589e-05
0.000105582
0.000116536
0.000165133
0.00017085
0.000169663
0.000170394
0.000156783
0.000148413
0.000121495
0.000108969
7.75169e-05
0.000144503
0.000251568
8.56298e-06
-2.27552e-05
-1.50624e-05
5.40061e-05
6.73473e-05
0.00011432
0.000125039
0.000148225
0.00015588
0.000101939
0.000107482
0.000107991
0.000113678
0.000110401
0.000119837
0.000116083
0.000140911
0.000130133
0.000185601
0.000108756
-6.09589e-05
-5.48539e-05
-7.62295e-05
-1.50182e-05
-4.69491e-06
4.22053e-05
5.668e-05
8.26941e-05
9.2185e-05
0.000113684
0.000116661
0.000114985
0.00011495
0.000103975
9.6817e-05
7.5802e-05
6.28249e-05
4.11559e-05
4.31108e-05
7.53226e-05
4.74063e-06
2.92321e-05
2.1581e-05
6.14734e-05
5.80171e-05
8.637e-05
8.81771e-05
0.000103855
0.000107513
8.3327e-05
8.7516e-05
8.83173e-05
9.2184e-05
8.91945e-05
9.47798e-05
9.19881e-05
0.000104043
9.66282e-05
0.000106138
6.34986e-05
-2.56601e-05
-1.73461e-05
-4.12894e-05
2.11258e-07
3.36869e-06
3.78696e-05
4.74078e-05
6.7819e-05
7.49587e-05
8.55004e-05
8.69218e-05
8.54392e-05
8.50243e-05
7.6533e-05
7.06787e-05
5.50166e-05
4.30243e-05
2.7253e-05
1.70833e-05
3.11237e-05
9.04854e-06
3.96675e-05
3.10129e-05
5.91364e-05
5.13976e-05
7.01342e-05
6.86704e-05
7.9565e-05
8.11236e-05
7.03141e-05
7.28215e-05
7.3437e-05
7.56453e-05
7.25776e-05
7.53335e-05
7.29051e-05
7.73902e-05
7.36676e-05
7.00349e-05
4.89008e-05
-5.4851e-06
5.99247e-07
-1.94516e-05
9.75542e-06
1.08114e-05
3.64914e-05
4.30901e-05
5.86776e-05
6.34896e-05
6.95619e-05
6.99465e-05
6.89651e-05
6.83442e-05
6.19103e-05
5.7458e-05
4.62183e-05
3.6049e-05
2.57159e-05
1.42196e-05
2.27799e-05
1.4125e-05
4.07897e-05
3.29399e-05
5.37864e-05
4.6381e-05
5.96258e-05
5.77091e-05
6.56607e-05
6.6208e-05
6.17928e-05
6.25884e-05
6.31042e-05
6.39289e-05
6.07792e-05
6.15988e-05
5.91171e-05
5.91337e-05
5.81399e-05
5.01852e-05
4.18564e-05
6.28431e-06
1.24987e-05
-2.7806e-06
1.8473e-05
1.86393e-05
3.73331e-05
4.19751e-05
5.34713e-05
5.63183e-05
6.05062e-05
5.97674e-05
5.94541e-05
5.85642e-05
5.34534e-05
5.02134e-05
4.30327e-05
3.4085e-05
2.87344e-05
1.76786e-05
2.48135e-05
1.82967e-05
3.95786e-05
3.20833e-05
4.84109e-05
4.28881e-05
5.25656e-05
5.14414e-05
5.74616e-05
5.72793e-05
5.65166e-05
5.56187e-05
5.63941e-05
5.62181e-05
5.28343e-05
5.26485e-05
5.01145e-05
4.71836e-05
4.8244e-05
3.88905e-05
3.79705e-05
1.38746e-05
2.16245e-05
1.00847e-05
2.6067e-05
2.59879e-05
3.89753e-05
4.24917e-05
5.07266e-05
5.18511e-05
5.52924e-05
5.33113e-05
5.38163e-05
5.24529e-05
4.81845e-05
4.6326e-05
4.13868e-05
3.3542e-05
3.28093e-05
2.12068e-05
2.93523e-05
2.08487e-05
3.83024e-05
3.12126e-05
4.40522e-05
4.07982e-05
4.78943e-05
4.80184e-05
5.24689e-05
5.17118e-05
5.31525e-05
5.10198e-05
5.24493e-05
5.10712e-05
4.78671e-05
4.7267e-05
4.51284e-05
3.97704e-05
4.27184e-05
3.24244e-05
3.67633e-05
1.91281e-05
2.8681e-05
1.88953e-05
3.18975e-05
3.18269e-05
4.06221e-05
4.37428e-05
4.9065e-05
4.91876e-05
5.24495e-05
4.8528e-05
5.05323e-05
4.86415e-05
4.44867e-05
4.37129e-05
4.0387e-05
3.27603e-05
3.58283e-05
2.35117e-05
3.3232e-05
2.25598e-05
3.79775e-05
3.05546e-05
4.14708e-05
4.01055e-05
4.4532e-05
4.63966e-05
4.956e-05
4.79996e-05
5.18572e-05
4.76246e-05
5.03577e-05
4.77388e-05
4.41357e-05
4.4861e-05
4.21282e-05
3.52068e-05
4.13324e-05
2.82905e-05
3.78557e-05
2.16396e-05
3.39113e-05
2.49017e-05
3.55259e-05
3.65368e-05
4.15283e-05
4.52055e-05
4.799e-05
4.6896e-05
5.03943e-05
4.49837e-05
4.88608e-05
4.56459e-05
4.182e-05
4.2269e-05
3.99175e-05
3.08162e-05
3.81354e-05
2.38015e-05
3.64795e-05
2.30497e-05
3.88014e-05
2.95784e-05
3.98636e-05
3.99567e-05
4.23038e-05
4.59822e-05
4.71892e-05
4.54781e-05
5.16143e-05
4.39517e-05
4.95879e-05
4.62443e-05
4.10947e-05
4.33228e-05
4.07742e-05
3.19503e-05
4.16611e-05
2.5574e-05
3.98115e-05
2.27548e-05
3.78382e-05
2.78922e-05
3.8171e-05
4.00772e-05
4.07872e-05
4.67036e-05
4.78476e-05
4.47849e-05
4.97713e-05
4.13004e-05
4.81172e-05
4.36276e-05
3.85593e-05
4.21304e-05
3.92365e-05
2.81671e-05
4.07104e-05
2.16406e-05
3.98185e-05
2.15093e-05
3.9797e-05
2.83616e-05
3.83378e-05
4.06841e-05
3.98451e-05
4.61805e-05
4.5393e-05
4.23544e-05
5.15574e-05
4.1003e-05
4.98722e-05
4.43389e-05
3.82548e-05
4.34897e-05
3.98994e-05
2.8213e-05
4.33057e-05
2.24836e-05
4.25897e-05
2.19472e-05
4.13696e-05
2.83393e-05
3.90848e-05
4.24069e-05
3.98076e-05
4.83208e-05
4.66625e-05
4.25927e-05
5.02995e-05
3.62092e-05
4.84255e-05
4.24858e-05
3.36161e-05
4.31231e-05
3.84708e-05
2.38025e-05
4.31915e-05
1.76743e-05
4.28631e-05
1.82949e-05
4.14065e-05
2.56133e-05
3.65102e-05
4.21496e-05
3.58113e-05
4.68819e-05
4.40607e-05
3.7766e-05
5.19783e-05
3.6769e-05
5.11282e-05
4.267e-05
3.43147e-05
4.50529e-05
3.88815e-05
2.31898e-05
4.64786e-05
1.74007e-05
4.64483e-05
1.82563e-05
4.45635e-05
2.60664e-05
3.88606e-05
4.41839e-05
3.68817e-05
5.02225e-05
4.50683e-05
3.92862e-05
5.0835e-05
2.97735e-05
5.03832e-05
4.01933e-05
2.69976e-05
4.56736e-05
3.72655e-05
1.63378e-05
4.68084e-05
1.04406e-05
4.67875e-05
1.18778e-05
4.37449e-05
2.00793e-05
3.39493e-05
4.31489e-05
3.02512e-05
4.86336e-05
4.117e-05
3.18346e-05
5.34427e-05
3.03478e-05
5.36046e-05
4.04793e-05
2.72906e-05
4.82046e-05
3.72513e-05
1.6013e-05
5.02176e-05
1.00429e-05
5.04383e-05
1.17987e-05
4.73776e-05
2.02607e-05
3.73322e-05
4.62076e-05
3.12294e-05
5.25405e-05
4.24354e-05
3.31696e-05
5.27801e-05
1.78969e-05
5.54897e-05
3.77837e-05
1.42025e-05
5.19844e-05
3.5591e-05
1.87358e-06
5.35935e-05
-3.293e-06
5.34676e-05
-9.91651e-07
4.83275e-05
8.17587e-06
2.94657e-05
4.57523e-05
1.90706e-05
5.27223e-05
3.755e-05
2.09484e-05
5.48363e-05
1.95494e-05
5.81748e-05
3.62239e-05
1.56738e-05
5.4341e-05
3.37661e-05
3.26825e-06
5.55587e-05
-2.49702e-06
5.54397e-05
-3.65242e-08
5.05168e-05
9.04629e-06
3.35848e-05
4.73142e-05
2.07386e-05
5.59089e-05
3.69268e-05
2.31212e-05
5.81021e-05
-4.96679e-06
6.84661e-05
3.11157e-05
-1.31138e-05
6.83544e-05
3.03025e-05
-2.7655e-05
6.67927e-05
-3.04757e-05
6.54977e-05
-2.70507e-05
5.73514e-05
-1.72586e-05
2.13994e-05
5.15749e-05
-3.33436e-06
6.32362e-05
2.89608e-05
-1.56339e-06
-0.0134672
-0.0129175
-0.0124671
-0.0121384
-0.0119452
-0.0119162
-0.0120688
-0.0123812
-0.0128425
-0.0134176
-0.0140705
-0.0147336
-0.0153257
-0.0157527
-0.015949
-0.0159221
-0.015685
-0.0152578
-0.0146982
-0.0140787
0.00195453
0.0020119
0.00194517
0.00181018
0.00165202
0.00153536
0.00139884
0.00122362
0.000988533
0.000703447
0.000357169
-1.00569e-05
-0.00032249
-0.000496463
-0.000452661
-0.000141332
0.000337689
0.000873476
0.00136715
0.00174113
-0.00274331
-0.00243241
-0.00221241
-0.002074
-0.00205685
-0.00216187
-0.00235691
-0.00259463
-0.00292731
-0.00332306
-0.00382184
-0.0043444
-0.0047886
-0.00503043
-0.00506188
-0.00488308
-0.00452528
-0.00405219
-0.00356501
-0.0031202
0.00336705
0.00344617
0.00346639
0.00347072
0.00344917
0.00340628
0.00328127
0.00312663
0.00284911
0.00251372
0.00199968
0.0014467
0.00101797
0.000879887
0.00112751
0.00157126
0.00211719
0.00260527
0.00297526
0.00322392
-0.000291674
-0.00013101
-5.82294e-05
-2e-05
-7.93166e-05
-0.000119027
-0.00022768
-0.000339933
-0.000605394
-0.000954527
-0.00159254
-0.00230445
-0.0028352
-0.00304289
-0.00291458
-0.00251944
-0.00195619
-0.00138858
-0.000903419
-0.000536696
0.00246196
0.00258215
0.00263914
0.00268672
0.0026647
0.00263198
0.00250118
0.0023648
0.00205494
0.00166834
0.000914674
0.000184504
-0.000247984
-0.000196061
0.00020513
0.000757978
0.00129231
0.00172645
0.00205853
0.00230004
0.000283048
0.000342014
0.000350102
0.000353531
0.000322317
0.000330991
0.000263392
0.00020283
-5.22535e-05
-0.000428212
-0.00129686
-0.00212852
-0.00255215
-0.00246486
-0.00197127
-0.00134358
-0.000757843
-0.000319104
-1.27762e-05
0.000179133
0.00157319
0.00166232
0.00170264
0.00173972
0.00170326
0.00167374
0.00155816
0.00143844
0.00114386
0.000724587
-0.000194692
-0.000952615
-0.00117463
-0.000838327
-0.000258862
0.000286058
0.000743742
0.00106239
0.00129711
0.0014605
0.000364419
0.000386635
0.000377079
0.000381155
0.000365941
0.000381744
0.000332643
0.000285569
6.85337e-05
-0.000313727
-0.00126295
-0.00204115
-0.00217413
-0.00174657
-0.0010975
-0.00057402
-0.000167857
7.63246e-05
0.000236994
0.000323719
0.000960053
0.00101307
0.00103351
0.00105077
0.00101907
0.000993369
0.000904831
0.000809845
0.000581127
0.000206337
-0.000671413
-0.00127987
-0.00118531
-0.000734426
-0.0001774
0.000203189
0.000498025
0.00067095
0.000805688
0.000894693
0.000325216
0.000337478
0.000328782
0.000337235
0.000325746
0.000339061
0.000303653
0.000280451
0.000130757
-0.000136929
-0.000943593
-0.00155836
-0.00138408
-0.000953281
-0.000457074
-0.000161086
6.72345e-05
0.000179803
0.000264579
0.000304673
0.000582216
0.000611048
0.000618794
0.00062622
0.000600109
0.000580725
0.000517419
0.000457377
0.000310482
8.4601e-05
-0.000575262
-0.00090553
-0.000688538
-0.000320077
3.35814e-05
0.000210918
0.000361623
0.000432177
0.000503561
0.000546486
0.000263376
0.000273929
0.000269976
0.000279634
0.000270256
0.000283821
0.000261641
0.000277575
0.000204808
0.000169774
-0.000373304
-0.000789357
-0.000617312
-0.000389847
-0.000118394
-1.65843e-07
0.000122057
0.000170533
0.000223951
0.000246992
0.00036166
0.000377299
0.000378732
0.000382218
0.000360519
0.000346913
0.000301239
0.00027202
0.000196775
0.000145045
-0.00019023
-0.000320808
-0.000183495
-2.52819e-05
0.00013674
0.000181155
0.000254936
0.000277827
0.00031994
0.000340824
0.000206151
0.000216258
0.0002158
0.000224846
0.000217386
0.000230899
0.000218998
0.000260765
0.000252938
0.000422611
0.000204917
-0.000227516
-0.000193369
-0.0001616
-3.68405e-05
1.03516e-05
9.69846e-05
0.000127643
0.000171919
0.000190137
0.000236549
0.000245651
0.000244636
0.000246288
0.000228236
0.000217812
0.000181796
0.00016542
0.00011978
0.000187181
0.000272599
-3.05053e-05
-4.08767e-05
-2.50159e-05
7.08419e-05
9.1139e-05
0.000156818
0.000174468
0.000208943
0.000222187
0.000161504
0.00017015
0.000171097
0.000178264
0.000172068
0.000181787
0.000172732
0.000199157
0.000179244
0.000238852
0.000132172
-8.7952e-05
-6.8883e-05
-9.17559e-05
-6.48895e-06
8.81627e-06
7.38724e-05
9.51822e-05
0.000132181
0.00014691
0.000166953
0.000172225
0.000170536
0.000171187
0.000156598
0.000147948
0.000120042
0.000104172
7.32502e-05
7.37525e-05
9.73604e-05
-5.45002e-06
3.08702e-05
2.04464e-05
7.87759e-05
7.70705e-05
0.000119468
0.000125298
0.000149601
0.000156958
0.000129807
0.000136104
0.000137134
0.000141998
0.000136526
0.000142137
0.000135337
0.000147544
0.000134117
0.000142266
8.56452e-05
-3.36961e-05
-1.71857e-05
-4.70079e-05
1.1383e-05
1.63253e-05
6.44763e-05
7.82576e-05
0.000107056
0.000117739
0.000127752
0.000130622
0.000129045
0.000129045
0.000117609
0.000110536
8.96681e-05
7.47989e-05
5.2622e-05
3.84231e-05
4.83344e-05
9.70302e-06
5.02741e-05
3.67436e-05
7.8117e-05
6.97172e-05
9.86648e-05
9.92887e-05
0.0001166
0.000120498
0.000108569
0.000112314
0.000113006
0.000115754
0.000110485
0.000112978
0.000107387
0.000110876
0.000103298
9.59362e-05
6.81852e-05
-4.46619e-06
8.19192e-06
-1.77482e-05
2.38249e-05
2.51208e-05
6.09014e-05
7.00604e-05
9.18912e-05
9.89373e-05
0.000105124
0.000106239
0.00010517
0.000104692
9.58269e-05
9.03747e-05
7.52688e-05
6.23002e-05
4.78991e-05
3.1687e-05
3.88086e-05
2.04253e-05
5.54719e-05
4.28658e-05
7.35994e-05
6.48717e-05
8.5648e-05
8.48839e-05
9.76096e-05
9.95518e-05
9.50106e-05
9.6259e-05
9.68229e-05
9.7778e-05
9.26249e-05
9.30069e-05
8.79862e-05
8.62891e-05
8.312e-05
7.07866e-05
6.00115e-05
1.26568e-05
2.46927e-05
4.42552e-06
3.50095e-05
3.48324e-05
6.09129e-05
6.71719e-05
8.32344e-05
8.73407e-05
9.20742e-05
9.1367e-05
9.10883e-05
9.00529e-05
8.28396e-05
7.88196e-05
6.88647e-05
5.71589e-05
4.97327e-05
3.3928e-05
4.15018e-05
2.80516e-05
5.64134e-05
4.4671e-05
6.86942e-05
6.19826e-05
7.7223e-05
7.69306e-05
8.64799e-05
8.69808e-05
8.67403e-05
8.55404e-05
8.65108e-05
8.60958e-05
8.08189e-05
8.01996e-05
7.56165e-05
7.04636e-05
7.07985e-05
5.68574e-05
5.61617e-05
2.37554e-05
3.70763e-05
2.13554e-05
4.45908e-05
4.40988e-05
6.2348e-05
6.70713e-05
7.85628e-05
8.01947e-05
8.45315e-05
8.18637e-05
8.26832e-05
8.08366e-05
7.46526e-05
7.23213e-05
6.53132e-05
5.46657e-05
5.36292e-05
3.71185e-05
4.73116e-05
3.28119e-05
5.66157e-05
4.5706e-05
6.47483e-05
6.07508e-05
7.18547e-05
7.28626e-05
7.98157e-05
7.9181e-05
8.16484e-05
7.8462e-05
8.04595e-05
7.84175e-05
7.33888e-05
7.25476e-05
6.87536e-05
6.06747e-05
6.43054e-05
4.9061e-05
5.57085e-05
3.1344e-05
4.65869e-05
3.29765e-05
5.1911e-05
5.16267e-05
6.39984e-05
6.83327e-05
7.58061e-05
7.58755e-05
8.04242e-05
7.49324e-05
7.78134e-05
7.50392e-05
6.89668e-05
6.81475e-05
6.31912e-05
5.24788e-05
5.69236e-05
3.91959e-05
5.25478e-05
3.59032e-05
5.75905e-05
4.64048e-05
6.26231e-05
6.10547e-05
6.80698e-05
7.11986e-05
7.59598e-05
7.40031e-05
7.95103e-05
7.32534e-05
7.72459e-05
7.3461e-05
6.79115e-05
6.89658e-05
6.47087e-05
5.44926e-05
6.29839e-05
4.40477e-05
5.79886e-05
3.5134e-05
5.37228e-05
4.07921e-05
5.65271e-05
5.7786e-05
6.48295e-05
7.01346e-05
7.40706e-05
7.23787e-05
7.77061e-05
6.96897e-05
7.53584e-05
7.07011e-05
6.47928e-05
6.58954e-05
6.20878e-05
4.92134e-05
5.9822e-05
3.89482e-05
5.71734e-05
3.69913e-05
5.96707e-05
4.61827e-05
6.13781e-05
6.18598e-05
6.54344e-05
7.1083e-05
7.29393e-05
7.03569e-05
7.89589e-05
6.79135e-05
7.60255e-05
7.09644e-05
6.34011e-05
6.68891e-05
6.2801e-05
4.98158e-05
6.39236e-05
4.04058e-05
6.13172e-05
3.66534e-05
5.91927e-05
4.46029e-05
5.97838e-05
6.25267e-05
6.36575e-05
7.21441e-05
7.35178e-05
6.91708e-05
7.68955e-05
6.43286e-05
7.43792e-05
6.77383e-05
6.00028e-05
6.55776e-05
6.09624e-05
4.50699e-05
6.33124e-05
3.56558e-05
6.1983e-05
3.51522e-05
6.18189e-05
4.5048e-05
5.99382e-05
6.34908e-05
6.22638e-05
7.17504e-05
7.05809e-05
6.59789e-05
7.89004e-05
6.32702e-05
7.63816e-05
6.82045e-05
5.8967e-05
6.71702e-05
6.15172e-05
4.43338e-05
6.65777e-05
3.58734e-05
6.56265e-05
3.52671e-05
6.41011e-05
4.48933e-05
6.08031e-05
6.58206e-05
6.18637e-05
7.44004e-05
7.17735e-05
6.56717e-05
7.7567e-05
5.71731e-05
7.49512e-05
6.58324e-05
5.30775e-05
6.69883e-05
5.97683e-05
3.86203e-05
6.6981e-05
2.97892e-05
6.65899e-05
3.06629e-05
6.45845e-05
4.14316e-05
5.78001e-05
6.57938e-05
5.68784e-05
7.30627e-05
6.85819e-05
5.96677e-05
7.95506e-05
5.68141e-05
7.82176e-05
6.56958e-05
5.28605e-05
6.94791e-05
6.00091e-05
3.68281e-05
7.11907e-05
2.84057e-05
7.12453e-05
2.97815e-05
6.85992e-05
4.12972e-05
6.02011e-05
6.84013e-05
5.73441e-05
7.71106e-05
6.93558e-05
6.05031e-05
7.84092e-05
4.80036e-05
7.77878e-05
6.25711e-05
4.36809e-05
7.06666e-05
5.79769e-05
2.80193e-05
7.22268e-05
1.94915e-05
7.23449e-05
2.16648e-05
6.81505e-05
3.37411e-05
5.44362e-05
6.74809e-05
4.90957e-05
7.56938e-05
6.45538e-05
5.1302e-05
8.1514e-05
4.72497e-05
8.19117e-05
6.24371e-05
4.25169e-05
7.41751e-05
5.76329e-05
2.5993e-05
7.67921e-05
1.74314e-05
7.72245e-05
2.01345e-05
7.27457e-05
3.26668e-05
5.77293e-05
7.12288e-05
4.89699e-05
8.05218e-05
6.5417e-05
5.15136e-05
8.09477e-05
3.20875e-05
8.46599e-05
5.89589e-05
2.6565e-05
7.92294e-05
5.54417e-05
8.70569e-06
8.13635e-05
1.05627e-06
8.13831e-05
4.4806e-06
7.42748e-05
1.7874e-05
4.8478e-05
7.09235e-05
3.42252e-05
8.11778e-05
5.92946e-05
3.67172e-05
8.35425e-05
3.21849e-05
8.85103e-05
5.6661e-05
2.62361e-05
8.29576e-05
5.29687e-05
8.08144e-06
8.45489e-05
-1.31838e-07
8.45486e-05
3.59729e-06
7.73788e-05
1.70199e-05
5.24016e-05
7.30895e-05
3.4442e-05
8.54204e-05
5.7891e-05
3.74808e-05
8.71341e-05
4.36819e-06
0.000100537
5.05583e-05
-6.35029e-06
9.93653e-05
4.8855e-05
-2.69381e-05
9.76779e-05
-3.18957e-05
9.631e-05
-2.70519e-05
8.52188e-05
-1.28779e-05
3.84511e-05
7.78958e-05
7.17098e-06
9.38215e-05
4.83238e-05
9.60658e-06
-0.0148782
-0.0142522
-0.0137371
-0.0133607
-0.0131452
-0.0131268
-0.0133135
-0.0136828
-0.0142212
-0.0148861
-0.0156335
-0.0163847
-0.0170478
-0.017519
-0.0177285
-0.0176843
-0.0174026
-0.0169106
-0.0162738
-0.0155716
0.0014423
0.00155121
0.0015211
0.00140678
0.00125812
0.00113332
0.000956615
0.000724033
0.000413579
4.13412e-05
-0.000398357
-0.000853399
-0.00123338
-0.00144234
-0.00139056
-0.00103592
-0.000488715
0.000130196
0.0007095
0.00116251
-0.00309645
-0.0027373
-0.00249434
-0.00235276
-0.0023601
-0.00249883
-0.00274172
-0.00304431