/*--------------------------------*- C++ -*----------------------------------*\
| =========                 |                                                 |
| \\      /  F ield         | OpenFOAM: The Open Source CFD Toolbox           |
|  \\    /   O peration     | Version:  2.4.0                                 |
|   \\  /    A nd           | Web:      www.OpenFOAM.org                      |
|    \\/     M anipulation  |                                                 |
\*---------------------------------------------------------------------------*/
FoamFile
{
    version     2.0;
    format      ascii;
    class       volScalarField;
    location    "310";
    object      p;
}
// * * * * * * * * * * * * * * * * * * * * * * * * * * * * * * * * * * * * * //

dimensions      [0 2 -2 0 0 0 0];

internalField   nonuniform List<scalar> 
283312
(
-0.00625026
-0.00630961
-0.00654939
-0.00688949
-0.00724184
-0.0075371
-0.00776723
-0.00792757
-0.00805077
-0.00816064
-0.00827762
-0.00838849
-0.0084612
-0.00844018
-0.00829119
-0.00802119
-0.00764188
-0.00718941
-0.00674453
-0.00640508
0.00214583
0.00164435
0.00121867
0.000949654
0.000850199
0.000915203
0.00105767
0.00119805
0.0013082
0.00139586
0.0014635
0.00154279
0.0016713
0.00187164
0.00215604
0.00252348
0.00283789
0.00298858
0.00291244
0.00260837
-0.00230783
-0.00215423
-0.00192866
-0.00168689
-0.00149363
-0.00139618
-0.00137816
-0.00138498
-0.00143468
-0.00147699
-0.00150784
-0.00148705
-0.00141645
-0.00131838
-0.00127404
-0.00138228
-0.00162426
-0.00191861
-0.00217968
-0.00232092
0.001476
0.00164928
0.00179327
0.00190814
0.00199104
0.00205964
0.00206617
0.00207221
0.00203856
0.00204904
0.00206636
0.00211377
0.00214165
0.0020985
0.00197035
0.00172982
0.00148173
0.00130109
0.00124942
0.00132571
-0.000744559
-0.000546376
-0.000429801
-0.00035162
-0.000348426
-0.000335933
-0.000347767
-0.000334403
-0.000364578
-0.000341646
-0.000350333
-0.00040633
-0.000584798
-0.000902942
-0.00132679
-0.00166413
-0.0017531
-0.00161108
-0.00132612
-0.00101043
0.00119978
0.00130901
0.00136666
0.00141217
0.00142587
0.00143316
0.00139859
0.0013853
0.00132078
0.00133034
0.00127513
0.00115108
0.000873805
0.000513824
0.000248838
0.000180074
0.000310529
0.000554545
0.000820033
0.00104334
-0.000151116
-0.000111561
-0.000104561
-9.86324e-05
-0.000109883
-8.48574e-05
-8.538e-05
-5.70243e-05
-8.86111e-05
-6.40457e-05
-0.000178229
-0.000447847
-0.000861304
-0.00126918
-0.00140265
-0.00125065
-0.000938079
-0.000625503
-0.000383408
-0.000230509
0.000760458
0.000809384
0.000832813
0.00085767
0.000846013
0.000842386
0.000804842
0.000784332
0.000715581
0.00070535
0.000548314
0.000237029
-0.0001659
-0.00035795
-0.000308225
-7.89499e-05
0.000204253
0.000430318
0.000592136
0.000695496
-9.95652e-07
8.97167e-07
-9.85688e-06
-1.13509e-05
-1.27424e-05
9.12464e-06
1.08959e-05
3.06055e-05
2.81749e-06
6.23379e-06
-0.000186992
-0.000591711
-0.000993957
-0.00107814
-0.000866758
-0.00057843
-0.00031529
-0.000151586
-5.56517e-05
-1.3395e-05
0.000439844
0.000464355
0.000475088
0.000485567
0.00047278
0.000464395
0.000434034
0.000411658
0.000358506
0.00034142
0.000161986
-0.000207105
-0.00045786
-0.000444389
-0.000214024
9.66436e-06
0.000193339
0.00029827
0.000368878
0.000410472
4.34715e-05
4.15641e-05
3.27836e-05
3.4714e-05
3.39821e-05
4.89888e-05
4.92958e-05
6.54434e-05
4.82861e-05
7.29234e-05
-0.000103494
-0.000532252
-0.000713102
-0.000631324
-0.000389345
-0.000205307
-6.79253e-05
-5.1264e-06
3.17771e-05
4.25336e-05
0.000250087
0.000261803
0.000265577
0.000268725
0.000257584
0.000248825
0.000225295
0.000207646
0.000172405
0.000191337
5.50918e-05
-0.000226353
-0.00033063
-0.000224848
-4.50658e-05
6.86748e-05
0.000153989
0.000190284
0.000220369
0.00023627
5.47405e-05
5.47728e-05
5.03362e-05
5.3827e-05
5.26471e-05
6.38956e-05
6.35117e-05
8.69834e-05
8.35848e-05
0.000189824
7.57089e-05
-0.000271276
-0.000355116
-0.000289794
-0.000144844
-6.34854e-05
4.25006e-06
2.82372e-05
4.82156e-05
5.28604e-05
0.00014509
0.000150247
0.000150426
0.000150725
0.000140964
0.000133178
0.000114081
0.000101873
8.13387e-05
0.000138538
9.79239e-05
-5.11289e-05
-0.0001082
-5.31128e-05
3.36701e-05
7.04407e-05
0.000107908
0.000117647
0.00013254
0.000138311
5.26823e-05
5.44365e-05
5.29842e-05
5.65678e-05
5.53727e-05
6.43616e-05
6.4651e-05
9.31612e-05
0.000105115
0.000279943
0.000266974
-5.06822e-05
-0.000137017
-0.000139581
-7.51838e-05
-3.49402e-05
1.09165e-05
2.66528e-05
4.38009e-05
4.8718e-05
8.88341e-05
9.10291e-05
8.98061e-05
8.90264e-05
8.06945e-05
7.38231e-05
5.74985e-05
4.68659e-05
2.89216e-05
8.59647e-05
0.000195954
3.71581e-05
-1.93897e-05
-1.94585e-05
2.14318e-05
3.48007e-05
6.32665e-05
7.00382e-05
8.17295e-05
8.47783e-05
4.62268e-05
4.84473e-05
4.83635e-05
5.12216e-05
5.01283e-05
5.61355e-05
5.59433e-05
7.23291e-05
6.84822e-05
0.000107055
6.65991e-05
-3.07122e-05
-4.00671e-05
-5.48395e-05
-2.09588e-05
-1.20095e-05
1.46205e-05
2.33452e-05
3.7094e-05
4.16665e-05
5.94081e-05
6.01554e-05
5.86477e-05
5.75634e-05
5.08473e-05
4.49851e-05
3.22194e-05
2.18112e-05
9.7928e-06
9.12224e-06
4.0877e-05
9.96615e-06
1.89905e-05
1.66053e-05
3.6376e-05
3.5142e-05
4.90476e-05
4.9142e-05
5.6123e-05
5.70243e-05
3.95042e-05
4.13437e-05
4.16368e-05
4.35061e-05
4.24126e-05
4.58644e-05
4.58228e-05
5.38981e-05
5.15048e-05
5.82223e-05
3.36833e-05
-1.53771e-05
-1.67351e-05
-3.04625e-05
-8.36048e-06
-4.58223e-06
1.45235e-05
2.05797e-05
3.15303e-05
3.52914e-05
4.37395e-05
4.38427e-05
4.25485e-05
4.14658e-05
3.63275e-05
3.1615e-05
2.21431e-05
1.32466e-05
4.48108e-06
-2.35366e-06
1.16587e-05
6.54198e-06
2.28467e-05
2.06159e-05
3.42141e-05
3.03072e-05
3.88951e-05
3.74083e-05
4.20606e-05
4.21501e-05
3.40865e-05
3.51995e-05
3.54571e-05
3.6424e-05
3.51215e-05
3.67439e-05
3.65289e-05
3.98172e-05
3.91331e-05
3.79182e-05
2.54899e-05
-5.13024e-06
-6.11668e-06
-1.70711e-05
-1.91058e-06
4.51002e-07
1.4701e-05
1.92584e-05
2.77829e-05
3.05049e-05
3.50475e-05
3.48294e-05
3.39356e-05
3.29685e-05
2.91618e-05
2.56218e-05
1.88647e-05
1.17772e-05
5.91575e-06
-8.16402e-07
6.90822e-06
7.08883e-06
2.19141e-05
1.98391e-05
2.98735e-05
2.6138e-05
3.20457e-05
3.05889e-05
3.39819e-05
3.3836e-05
3.02503e-05
3.0551e-05
3.07546e-05
3.09817e-05
2.95151e-05
2.98751e-05
2.92478e-05
2.97298e-05
3.01278e-05
2.62589e-05
2.11548e-05
8.8684e-07
1.1563e-06
-6.86442e-06
3.95089e-06
5.4862e-06
1.58606e-05
1.92442e-05
2.55995e-05
2.73427e-05
3.01558e-05
2.95338e-05
2.90927e-05
2.818e-05
2.52383e-05
2.26569e-05
1.84561e-05
1.25683e-05
9.38567e-06
3.3341e-06
8.59564e-06
8.33619e-06
2.00931e-05
1.76934e-05
2.56215e-05
2.29479e-05
2.72776e-05
2.64706e-05
2.91358e-05
2.88239e-05
2.77483e-05
2.72283e-05
2.7543e-05
2.7292e-05
2.55942e-05
2.52642e-05
2.43027e-05
2.2952e-05
2.40096e-05
1.9347e-05
1.83066e-05
4.82117e-06
6.83419e-06
1.06996e-06
9.07029e-06
1.0124e-05
1.72993e-05
1.98685e-05
2.44745e-05
2.52894e-05
2.73126e-05
2.61985e-05
2.62212e-05
2.52224e-05
2.28459e-05
2.12597e-05
1.84146e-05
1.35953e-05
1.29253e-05
6.72184e-06
1.16661e-05
9.11505e-06
1.84845e-05
1.59603e-05
2.21323e-05
2.07357e-05
2.40153e-05
2.40156e-05
2.61004e-05
2.56456e-05
2.60119e-05
2.503e-05
2.56149e-05
2.47544e-05
2.31701e-05
2.24659e-05
2.15916e-05
1.876e-05
2.03713e-05
1.53213e-05
1.70415e-05
7.66959e-06
1.12125e-05
6.48751e-06
1.29896e-05
1.37063e-05
1.86247e-05
2.07303e-05
2.37394e-05
2.40746e-05
2.57145e-05
2.36685e-05
2.44975e-05
2.34112e-05
2.11383e-05
2.01954e-05
1.83835e-05
1.40305e-05
1.52666e-05
8.95712e-06
1.40569e-05
9.75939e-06
1.76378e-05
1.47175e-05
1.99644e-05
1.95572e-05
2.1638e-05
2.26469e-05
2.43086e-05
2.3506e-05
2.53887e-05
2.34117e-05
2.45574e-05
2.3108e-05
2.12936e-05
2.13209e-05
1.99292e-05
1.63133e-05
1.93179e-05
1.28162e-05
1.72746e-05
9.01864e-06
1.43638e-05
1.02643e-05
1.5403e-05
1.65362e-05
1.94236e-05
2.15816e-05
2.32391e-05
2.29132e-05
2.43871e-05
2.18788e-05
2.35662e-05
2.18579e-05
1.9964e-05
1.95747e-05
1.84597e-05
1.34629e-05
1.67874e-05
9.73636e-06
1.58652e-05
9.93218e-06
1.76493e-05
1.35933e-05
1.85744e-05
1.8839e-05
2.01664e-05
2.20442e-05
2.27855e-05
2.21314e-05
2.52815e-05
2.15246e-05
2.4133e-05
2.2538e-05
1.98168e-05
2.04474e-05
1.92522e-05
1.47596e-05
1.92371e-05
1.14404e-05
1.80264e-05
9.81111e-06
1.66283e-05
1.22467e-05
1.72128e-05
1.85909e-05
1.9156e-05
2.23621e-05
2.33441e-05
2.18693e-05
2.39012e-05
2.00072e-05
2.30317e-05
2.0842e-05
1.83605e-05
1.95665e-05
1.82513e-05
1.24291e-05
1.82708e-05
8.92956e-06
1.76244e-05
9.06497e-06
1.77917e-05
1.26942e-05
1.73855e-05
1.88357e-05
1.87176e-05
2.18258e-05
2.16867e-05
2.03996e-05
2.51255e-05
2.02684e-05
2.42207e-05
2.15648e-05
1.86092e-05
2.04746e-05
1.88738e-05
1.30282e-05
1.9896e-05
1.00939e-05
1.92723e-05
9.70766e-06
1.86082e-05
1.28263e-05
1.79358e-05
1.9811e-05
1.89567e-05
2.31626e-05
2.27417e-05
2.09337e-05
2.41091e-05
1.73154e-05
2.29996e-05
2.04301e-05
1.57558e-05
2.00245e-05
1.79789e-05
1.04287e-05
1.94465e-05
7.19173e-06
1.90255e-05
7.50919e-06
1.83433e-05
1.11972e-05
1.61756e-05
1.94396e-05
1.64558e-05
2.19007e-05
2.10501e-05
1.78508e-05
2.51911e-05
1.83943e-05
2.47256e-05
2.08011e-05
1.69497e-05
2.11526e-05
1.84501e-05
1.07851e-05
2.14198e-05
7.81251e-06
2.11501e-05
8.13875e-06
2.02826e-05
1.20261e-05
1.80279e-05
2.06764e-05
1.77558e-05
2.40519e-05
2.20203e-05
1.95217e-05
2.41954e-05
1.40789e-05
2.38367e-05
1.92835e-05
1.24179e-05
2.11929e-05
1.74868e-05
6.71927e-06
2.11479e-05
3.6913e-06
2.08583e-05
4.33178e-06
1.93398e-05
8.39214e-06
1.46691e-05
1.97398e-05
1.36144e-05
2.2594e-05
1.95299e-05
1.47689e-05
2.58584e-05
1.55464e-05
2.57011e-05
1.98297e-05
1.37534e-05
2.24517e-05
1.77444e-05
7.75217e-06
2.29942e-05
4.67866e-06
2.28635e-05
5.42593e-06
2.15263e-05
9.53931e-06
1.74375e-05
2.16881e-05
1.52696e-05
2.50094e-05
2.08513e-05
1.66739e-05
2.51283e-05
7.64361e-06
2.64365e-05
1.8299e-05
5.46683e-06
2.44003e-05
1.68898e-05
-1.14099e-06
2.46981e-05
-3.61533e-06
2.43561e-05
-2.5645e-06
2.17565e-05
1.97687e-06
1.20776e-05
2.11413e-05
7.52284e-06
2.46641e-05
1.78715e-05
8.81755e-06
2.62525e-05
1.03946e-05
2.75459e-05
1.7664e-05
8.27397e-06
2.50565e-05
1.59825e-05
1.80091e-06
2.51849e-05
-1.15522e-06
2.48943e-05
-9.77032e-08
2.26935e-05
4.26689e-06
1.55651e-05
2.18803e-05
1.02135e-05
2.62821e-05
1.80345e-05
1.18346e-05
2.83201e-05
-6.69081e-06
3.41034e-05
1.44606e-05
-1.18675e-05
3.40447e-05
1.38712e-05
-1.97848e-05
3.23739e-05
-2.0534e-05
3.13111e-05
-1.88418e-05
2.70682e-05
-1.39764e-05
6.83638e-06
2.46247e-05
-6.60949e-06
3.09496e-05
1.29628e-05
-5.54017e-06
-0.0109498
-0.0105569
-0.0102503
-0.010038
-0.00992091
-0.00990667
-0.0100254
-0.0102579
-0.0105983
-0.0110227
-0.0115093
-0.0120073
-0.0124537
-0.0127707
-0.0129062
-0.0128706
-0.0126727
-0.0123276
-0.0118845
-0.0114062
0.00233463
0.00228952
0.00215846
0.00199686
0.0018427
0.00175207
0.00168275
0.00159736
0.00147505
0.00132057
0.00111837
0.000895027
0.00070532
0.00061041
0.000671226
0.000937628
0.00131447
0.00170797
0.00204098
0.0022573
-0.0023364
-0.0020986
-0.00191044
-0.00177233
-0.00172083
-0.00177523
-0.00190186
-0.00205042
-0.00226721
-0.00252222
-0.00285309
-0.00320453
-0.00350896
-0.00368167
-0.00372107
-0.00364839
-0.00346301
-0.00318731
-0.00288738
-0.00259841
0.00289988
0.00296455
0.00298985
0.0030082
0.00301368
0.00301424
0.00294783
0.00287009
0.00270383
0.00251138
0.00218388
0.00181459
0.00150632
0.00137374
0.00149924
0.0017572
0.00209492
0.00240017
0.00263503
0.00279898
-0.000461712
-0.000313001
-0.000239109
-0.000191054
-0.000227669
-0.000242678
-0.000303433
-0.000349627
-0.000504285
-0.000699576
-0.00111901
-0.0016244
-0.00205424
-0.00228646
-0.00231287
-0.00213228
-0.00177543
-0.00136723
-0.000985757
-0.000677982
0.0020147
0.00211688
0.00216795
0.00221418
0.00221086
0.00220106
0.00211846
0.0020471
0.00185201
0.00162857
0.00111694
0.000582613
0.000206538
0.000143613
0.000354908
0.000710825
0.00108844
0.00141632
0.00168065
0.00187934
5.68346e-05
0.000101542
0.000106264
0.000111085
8.90712e-05
0.000111283
8.10309e-05
7.37916e-05
-7.26008e-05
-0.000282097
-0.000885953
-0.00152745
-0.00192876
-0.0019868
-0.00169519
-0.00124563
-0.00078979
-0.000433943
-0.00018179
-2.52607e-05
0.00124917
0.00131959
0.00135255
0.0013868
0.00136258
0.00134887
0.00127203
0.00120617
0.00101867
0.000768105
0.000118137
-0.000479151
-0.00074132
-0.000560695
-0.000168509
0.000238375
0.000596327
0.000849066
0.00103456
0.00116194
0.000170665
0.000180993
0.000168972
0.000170425
0.00016308
0.000187333
0.000167426
0.000162447
3.94857e-05
-0.000181941
-0.000860222
-0.00149389
-0.00170319
-0.00144278
-0.000962258
-0.000551487
-0.000226764
-3.45825e-05
8.69487e-05
0.000147085
0.000739353
0.000779612
0.000795994
0.000811704
0.000789065
0.000773866
0.000714134
0.000659065
0.00051536
0.000288312
-0.000335668
-0.000840825
-0.000847209
-0.000549142
-0.000129614
0.000166157
0.000395907
0.000526838
0.000626879
0.000691392
0.000176927
0.000180973
0.000170948
0.000176842
0.000171548
0.000189835
0.000175169
0.000178999
9.73583e-05
-4.80492e-05
-0.000622021
-0.0011519
-0.0010907
-0.000788936
-0.000405074
-0.000172019
4.84977e-06
8.65985e-05
0.000144911
0.000167945
0.000434161
0.000455143
0.0004612
0.000467421
0.000448355
0.000435389
0.000391646
0.000355584
0.000264202
0.000137866
-0.000325987
-0.000617197
-0.000503227
-0.000236753
3.42731e-05
0.000170177
0.000282375
0.000330848
0.000380441
0.00040912
0.000154511
0.000159296
0.000154497
0.000161927
0.000157261
0.000172717
0.000163478
0.00018981
0.000155185
0.000179922
-0.000199395
-0.000573493
-0.000486809
-0.000326239
-0.000117021
-2.5581e-05
6.57551e-05
9.81107e-05
0.000133765
0.000146184
0.000260905
0.000271561
0.0002724
0.000274798
0.00025861
0.000248528
0.00021561
0.000196877
0.000149992
0.000141271
-8.07368e-05
-0.000197181
-0.000124409
-9.49879e-06
0.000111888
0.000142966
0.000194297
0.000206744
0.000234501
0.000247036
0.000126651
0.000132503
0.000131405
0.000138529
0.000134665
0.000148178
0.000143809
0.000184755
0.000191112
0.000365001
0.000228766
-0.000146281
-0.000154324
-0.00013967
-4.84359e-05
-1.08638e-05
5.39654e-05
7.50784e-05
0.000105836
0.000116789
0.000165372
0.00017109
0.000169912
0.000170636
0.000157023
0.000148647
0.000121708
0.000109184
7.76682e-05
0.000144667
0.000251599
8.49165e-06
-2.28382e-05
-1.5102e-05
5.40494e-05
6.7424e-05
0.000114456
0.000125205
0.000148429
0.000156098
0.000102104
0.000107637
0.000108142
0.000113815
0.000110532
0.000119952
0.000116186
0.000140994
0.000130194
0.000185601
0.000108701
-6.10144e-05
-5.49134e-05
-7.62783e-05
-1.50149e-05
-4.64935e-06
4.2306e-05
5.68061e-05
8.28481e-05
9.23426e-05
0.000113829
0.000116808
0.000115138
0.000115097
0.000104121
9.69555e-05
7.59264e-05
6.29411e-05
4.12327e-05
4.31717e-05
7.53271e-05
4.69723e-06
2.91902e-05
2.15505e-05
6.14848e-05
5.80496e-05
8.64423e-05
8.8269e-05
0.000103975
0.000107643
8.3437e-05
8.76198e-05
8.84225e-05
9.2278e-05
8.92847e-05
9.48548e-05
9.20534e-05
0.00010409
9.66555e-05
0.000106133
6.34597e-05
-2.57045e-05
-1.73931e-05
-4.13307e-05
2.08788e-07
3.3887e-06
3.79272e-05
4.74821e-05
6.79155e-05
7.50594e-05
8.55942e-05
8.70145e-05
8.5538e-05
8.51167e-05
7.66252e-05
7.07613e-05
5.50909e-05
4.30849e-05
2.72928e-05
1.70991e-05
3.11204e-05
9.01625e-06
3.96396e-05
3.09882e-05
5.91379e-05
5.14107e-05
7.01754e-05
6.87245e-05
7.964e-05
8.1205e-05
7.03896e-05
7.28926e-05
7.35115e-05
7.5711e-05
7.26412e-05
7.53837e-05
7.2949e-05
7.7417e-05
7.36828e-05
7.00302e-05
4.88771e-05
-5.52091e-06
5.66299e-07
-1.94846e-05
9.7507e-06
1.08195e-05
3.6526e-05
4.31358e-05
5.87406e-05
6.35559e-05
6.96259e-05
7.00082e-05
6.90321e-05
6.84047e-05
6.1971e-05
5.75084e-05
4.62647e-05
3.60798e-05
2.57372e-05
1.42172e-05
2.27729e-05
1.40989e-05
4.07703e-05
3.29193e-05
5.37854e-05
4.63862e-05
5.96517e-05
5.77434e-05
6.5711e-05
6.62619e-05
6.18466e-05
6.26383e-05
6.31583e-05
6.39756e-05
6.08249e-05
6.16329e-05
5.91482e-05
5.91486e-05
5.81504e-05
5.01785e-05
4.1843e-05
6.25663e-06
1.24772e-05
-2.80613e-06
1.84692e-05
1.86425e-05
3.73558e-05
4.20049e-05
5.35149e-05
5.63637e-05
6.05525e-05
5.98105e-05
5.95021e-05
5.86058e-05
5.34952e-05
5.02453e-05
4.30634e-05
3.41e-05
2.87475e-05
1.76701e-05
2.48071e-05
1.82742e-05
3.95655e-05
3.20662e-05
4.84101e-05
4.28906e-05
5.25839e-05
5.14652e-05
5.74978e-05
5.73171e-05
5.65569e-05
5.56547e-05
5.64347e-05
5.62521e-05
5.28679e-05
5.26721e-05
5.01377e-05
4.71908e-05
4.82528e-05
3.88814e-05
3.7964e-05
1.38527e-05
2.16114e-05
1.00657e-05
2.60654e-05
2.59898e-05
3.89918e-05
4.25129e-05
5.07588e-05
5.18835e-05
5.53281e-05
5.33427e-05
5.38527e-05
5.24833e-05
4.82149e-05
4.63473e-05
4.14091e-05
3.35482e-05
3.28195e-05
2.11961e-05
2.93491e-05
2.08293e-05
3.82947e-05
3.11987e-05
4.40529e-05
4.08003e-05
4.79087e-05
4.80365e-05
5.2497e-05
5.17396e-05
5.31845e-05
5.10465e-05
5.24811e-05
5.1097e-05
4.78923e-05
4.72837e-05
4.51467e-05
3.97723e-05
4.27272e-05
3.24135e-05
3.67619e-05
1.91097e-05
2.86746e-05
1.88813e-05
3.18984e-05
3.18291e-05
4.06354e-05
4.37593e-05
4.90904e-05
4.92118e-05
5.2479e-05
4.85515e-05
5.05615e-05
4.86652e-05
4.45096e-05
4.37283e-05
4.04049e-05
3.27613e-05
3.58387e-05
2.35e-05
3.32332e-05
2.25426e-05
3.79748e-05
3.05435e-05
4.14734e-05
4.01084e-05
4.45444e-05
4.64117e-05
4.95834e-05
4.80209e-05
5.18842e-05
4.76448e-05
5.03838e-05
4.77593e-05
4.4155e-05
4.48735e-05
4.21437e-05
3.52047e-05
4.13425e-05
2.82779e-05
3.78588e-05
2.1623e-05
3.39103e-05
2.48907e-05
3.55291e-05
3.654e-05
4.15401e-05
4.52195e-05
4.80116e-05
4.69146e-05
5.04201e-05
4.50016e-05
4.88856e-05
4.56657e-05
4.18378e-05
4.22813e-05
3.99335e-05
3.08134e-05
3.81478e-05
2.37885e-05
3.64855e-05
2.30336e-05
3.88035e-05
2.95695e-05
3.98681e-05
3.99608e-05
4.23152e-05
4.59957e-05
4.72098e-05
4.54948e-05
5.16387e-05
4.39666e-05
4.96106e-05
4.62622e-05
4.11094e-05
4.33332e-05
4.07883e-05
3.19446e-05
4.16736e-05
2.55594e-05
3.98192e-05
2.27384e-05
3.78419e-05
2.78832e-05
3.81762e-05
4.00818e-05
4.0798e-05
4.67165e-05
4.7867e-05
4.47995e-05
4.97954e-05
4.13142e-05
4.81396e-05
4.36451e-05
3.85728e-05
4.21416e-05
3.92522e-05
2.81606e-05
4.07262e-05
2.16255e-05
3.98298e-05
2.14933e-05
3.9804e-05
2.83532e-05
3.8344e-05
4.06896e-05
3.98554e-05
4.61934e-05
4.54121e-05
4.23673e-05
5.15808e-05
4.10146e-05
4.98933e-05
4.43541e-05
3.82653e-05
4.34995e-05
3.99131e-05
2.82034e-05
4.33219e-05
2.2466e-05
4.26025e-05
2.19296e-05
4.1378e-05
2.83305e-05
3.90918e-05
4.24129e-05
3.98174e-05
4.83335e-05
4.66807e-05
4.26038e-05
5.03234e-05
3.62188e-05
4.84472e-05
4.2502e-05
3.36249e-05
4.31351e-05
3.84873e-05
2.37913e-05
4.32125e-05
1.76555e-05
4.28807e-05
1.82767e-05
4.14186e-05
2.56039e-05
3.65179e-05
4.21567e-05
3.58201e-05
4.68948e-05
4.40789e-05
3.7775e-05
5.20022e-05
3.67769e-05
5.11492e-05
4.26841e-05
3.43207e-05
4.50641e-05
3.88956e-05
2.31751e-05
4.65002e-05
1.73786e-05
4.64672e-05
1.82357e-05
4.45771e-05
2.60562e-05
3.88692e-05
4.41917e-05
3.689e-05
5.02356e-05
4.50858e-05
3.92937e-05
5.08604e-05
2.97776e-05
5.04061e-05
4.02096e-05
2.69999e-05
4.5689e-05
3.72836e-05
1.63189e-05
4.68369e-05
1.0415e-05
4.68132e-05
1.18546e-05
4.37634e-05
2.00667e-05
3.3958e-05
4.31583e-05
3.02573e-05
4.86474e-05
4.11877e-05
3.18384e-05
5.34685e-05
3.0351e-05
5.36275e-05
4.04935e-05
2.72906e-05
4.82197e-05
3.72666e-05
1.59911e-05
5.02469e-05
1.00139e-05
5.04652e-05
1.17729e-05
4.73976e-05
2.02468e-05
3.73422e-05
4.62175e-05
3.1235e-05
5.2555e-05
4.24527e-05
3.31722e-05
5.28089e-05
1.78925e-05
5.5517e-05
3.78011e-05
1.41931e-05
5.20077e-05
3.56117e-05
1.84066e-06
5.36345e-05
-3.33099e-06
5.35057e-05
-1.02532e-06
4.83555e-05
8.15533e-06
2.94753e-05
4.57654e-05
1.90713e-05
5.27386e-05
3.75675e-05
2.0944e-05
5.48662e-05
1.95445e-05
5.82022e-05
3.62394e-05
1.56635e-05
5.43644e-05
3.3784e-05
3.23395e-06
5.56002e-05
-2.5373e-06
5.54783e-05
-7.20431e-08
5.05458e-05
9.02478e-06
3.35963e-05
4.73275e-05
2.07391e-05
5.59262e-05
3.69438e-05
2.31167e-05
5.81402e-05
-4.98824e-06
6.85048e-05
3.11353e-05
-1.31476e-05
6.83969e-05
3.03272e-05
-2.77174e-05
6.68581e-05
-3.05393e-05
6.55584e-05
-2.71069e-05
5.73972e-05
-1.72974e-05
2.14114e-05
5.15959e-05
-3.3458e-06
6.32599e-05
2.89781e-05
-1.58454e-06
-0.0134815
-0.0129318
-0.0124815
-0.012153
-0.0119601
-0.0119318
-0.0120851
-0.0123983
-0.0128606
-0.0134365
-0.0140903
-0.0147539
-0.015346
-0.0157725
-0.0159683
-0.0159407
-0.0157025
-0.0152742
-0.0147135
-0.0140933
0.00194963
0.00200689
0.00194026
0.00180536
0.0016474
0.00153113
0.00139468
0.00121955
0.000984535
0.000699458
0.000353143
-1.41419e-05
-0.000326577
-0.000500611
-0.000456612
-0.00014482
0.000334116
0.000869676
0.00136297
0.00173653
-0.00274209
-0.00243202
-0.0022131
-0.00207573
-0.00205957
-0.00216539
-0.00236101
-0.00259938
-0.00293265
-0.00332894
-0.00382811
-0.00435077
-0.00479463
-0.00503571
-0.00506617
-0.00488628
-0.00452703
-0.0040525
-0.00356411
-0.00311875
0.00337115
0.00344982
0.00346953
0.00347337
0.00345147
0.00340818
0.00328295
0.00312805
0.00285028
0.00251462
0.00200029
0.00144715
0.00101865
0.000880981
0.00112914
0.00157361
0.00212032
0.0026091
0.00297954
0.00322827
-0.000289092
-0.000128901
-5.66338e-05
-1.89895e-05
-7.8771e-05
-0.000118902
-0.000227892
-0.000340521
-0.0006064
-0.000956018
-0.00159473
-0.00230714
-0.00283761
-0.00304415
-0.00291482
-0.00251867
-0.00195454
-0.00138627
-0.00090069
-0.000533893
0.00246593
0.00258587
0.00264261
0.00268994
0.00266766
0.00263473
0.00250373
0.00236716
0.00205701
0.00167001
0.000915318
0.000184041
-0.000248379
-0.000195747
0.000206901
0.000760881
0.00129598
0.0017305
0.00206272
0.00230417
0.000285248
0.000343917
0.000351731
0.000354859
0.000323485
0.000332023
0.000264313
0.000203659
-5.17464e-05
-0.000428264
-0.00129891
-0.00213326
-0.00255733
-0.00246826
-0.00197252
-0.00134304
-0.000756175
-0.000316856
-1.03173e-05
0.000181529
0.00157598
0.00166499
0.0017052
0.00174215
0.00170555
0.00167591
0.00156021
0.00144039
0.00114544
0.00072554
-0.000196095
-0.000957042
-0.00118061
-0.000842617
-0.000260354
0.000286856
0.000745857
0.00106506
0.00129997
0.00146336
0.000365993
0.000388027
0.000378318
0.000382257
0.000366975
0.000382754
0.000333622
0.000286559
6.93061e-05
-0.000313404
-0.00126437
-0.0020451
-0.00217993
-0.0017513
-0.00109958
-0.000574029
-0.000166679
7.79735e-05
0.000238775
0.000325427
0.000961793
0.00101477
0.00103517
0.00105236
0.0010206
0.000994846
0.000906221
0.000811192
0.00058221
0.000207054
-0.000672076
-0.00128239
-0.00118876
-0.000737298
-0.000178548
0.000203413
0.00049913
0.000672455
0.000807381
0.000896425
0.000326247
0.000338414
0.000329641
0.000338026
0.000326507
0.000339817
0.000304392
0.000281219
0.000131398
-0.000136487
-0.000944126
-0.00156028
-0.00138672
-0.000955426
-0.000457969
-0.000161006
6.79533e-05
0.000180797
0.000265685
0.000305757
0.000583264
0.000612088
0.00061983
0.000627221
0.000601081
0.000581677
0.000518313
0.000458272
0.000311211
8.52416e-05
-0.000575331
-0.000906532
-0.000689895
-0.00032121
3.31805e-05
0.000211097
0.000362236
0.00043301
0.000504531
0.000547502
0.000264047
0.000274552
0.000270565
0.000280183
0.000270788
0.00028434
0.000262144
0.000278091
0.000205263
0.000170199
-0.000373394
-0.000790043
-0.00061827
-0.00039061
-0.000118647
-2.22282e-08
0.000122507
0.000171128
0.000224629
0.000247672
0.000362298
0.000377938
0.000379377
0.000382846
0.000361134
0.000347517
0.000301802
0.000272591
0.000197242
0.000145543
-0.000190047
-0.000321091
-0.000183931
-2.56474e-05
0.000136677
0.000181319
0.000255305
0.000278306
0.000320509
0.000341428
0.000206596
0.000216679
0.000216209
0.000225227
0.000217755
0.000231247
0.000219326
0.00026108
0.000253211
0.00042285
0.000204954
-0.00022763
-0.000193535
-0.000161733
-3.68337e-05
1.0505e-05
9.72818e-05
0.000128012
0.000172347
0.000190574
0.00023695
0.000246053
0.000245048
0.000246688
0.00022863
0.000218195
0.000182148
0.000165767
0.000120037
0.000187439
0.00027267
-3.05821e-05
-4.09729e-05
-2.50595e-05
7.09154e-05
9.12799e-05
0.000157055
0.00017476
0.000209293
0.00022256
0.000161807
0.000170442
0.000171386
0.000178533
0.000172328
0.000182024
0.00017295
0.000199346
0.000179394
0.000238919
0.00013215
-8.79938e-05
-6.89413e-05
-9.17957e-05
-6.44772e-06
8.9232e-06
7.40637e-05
9.54165e-05
0.00013246
0.000147199
0.000167217
0.00017249
0.00017081
0.00017145
0.000156858
0.000148195
0.000120267
0.000104381
7.34029e-05
7.38743e-05
9.74006e-05
-5.47821e-06
3.08418e-05
2.0434e-05
7.88253e-05
7.71578e-05
0.000119618
0.000125482
0.000149827
0.0001572
0.00013002
0.00013631
0.000137344
0.000142192
0.000136714
0.000142304
0.000135489
0.000147668
0.00013421
0.000142313
8.564e-05
-3.37188e-05
-1.72146e-05
-4.70282e-05
1.1419e-05
1.63966e-05
6.46039e-05
7.84129e-05
0.000107245
0.000117938
0.000127936
0.000130804
0.000129235
0.000129225
0.000117788
0.000110699
8.9819e-05
7.49273e-05
5.27199e-05
3.84833e-05
4.83647e-05
9.6929e-06
5.02686e-05
3.67426e-05
7.81556e-05
6.97765e-05
9.87675e-05
9.94131e-05
0.000116755
0.000120664
0.000108725
0.000112465
0.000113161
0.000115897
0.000110625
0.000113099
0.000107499
0.000110963
0.000103366
9.59736e-05
6.81943e-05
-4.47862e-06
8.18279e-06
-1.7757e-05
2.38565e-05
2.51724e-05
6.09924e-05
7.01693e-05
9.20266e-05
9.9079e-05
0.00010526
0.000106371
0.00010531
0.000104821
9.5956e-05
9.04882e-05
7.53756e-05
6.23835e-05
4.79678e-05
3.17208e-05
3.88334e-05
2.04228e-05
5.5478e-05
4.28701e-05
7.36333e-05
6.49169e-05
8.57248e-05
8.49747e-05
9.77243e-05
9.96726e-05
9.51288e-05
9.6372e-05
9.6942e-05
9.78864e-05
9.2732e-05
9.30971e-05
8.80718e-05
8.63508e-05
8.31745e-05
7.08144e-05
6.00296e-05
1.26527e-05
2.46972e-05
4.42455e-06
3.50397e-05
3.48735e-05
6.09828e-05
6.72534e-05
8.33364e-05
8.74463e-05
9.21789e-05
9.1467e-05
9.11952e-05
9.01504e-05
8.2937e-05
7.89023e-05
6.89451e-05
5.72159e-05
4.97864e-05
3.39503e-05
4.15259e-05
2.80523e-05
5.64269e-05
4.46785e-05
6.87262e-05
6.20206e-05
7.72849e-05
7.70016e-05
8.65693e-05
8.7073e-05
8.68341e-05
8.56282e-05
8.66052e-05
8.61807e-05
8.09032e-05
8.02692e-05
7.56853e-05
7.0509e-05
7.08456e-05
5.68776e-05
5.61855e-05
2.37564e-05
3.709e-05
2.13605e-05
4.46211e-05
4.41348e-05
6.24054e-05
6.71363e-05
7.8644e-05
8.02769e-05
8.46166e-05
8.19425e-05
8.27691e-05
8.09136e-05
7.47294e-05
7.23849e-05
6.53778e-05
5.47067e-05
5.36757e-05
3.71346e-05
4.7338e-05
3.28144e-05
5.66348e-05
4.5716e-05
6.47799e-05
6.07853e-05
7.19075e-05
7.29215e-05
7.98893e-05
7.92546e-05
8.17263e-05
7.85323e-05
8.05371e-05
7.84864e-05
7.34569e-05
7.26033e-05
6.88113e-05
6.07084e-05
6.43489e-05
4.90753e-05
5.57365e-05
3.13468e-05
4.66073e-05
3.2986e-05
5.19421e-05
5.16602e-05
6.40483e-05
6.83874e-05
7.58742e-05
7.5942e-05
8.04966e-05
7.49963e-05
7.78853e-05
7.5103e-05
6.90295e-05
6.81991e-05
6.32462e-05
5.25091e-05
5.69675e-05
3.92076e-05
5.2578e-05
3.59066e-05
5.76147e-05
4.64167e-05
6.26551e-05
6.10876e-05
6.8117e-05
7.12498e-05
7.60233e-05
7.40637e-05
7.95779e-05
7.33111e-05
7.73123e-05
7.3519e-05
6.79677e-05
6.90123e-05
6.47594e-05
5.45175e-05
6.30265e-05
4.40569e-05
5.80206e-05
3.51373e-05
5.37487e-05
4.08036e-05
5.65591e-05
5.78184e-05
6.48744e-05
7.0183e-05
7.41302e-05
7.24342e-05
7.77706e-05
6.97425e-05
7.54212e-05
7.07565e-05
6.48452e-05
6.59398e-05
6.21375e-05
4.92356e-05
5.98664e-05
3.89556e-05
5.72084e-05
3.69937e-05
5.96999e-05
4.6196e-05
6.14109e-05
6.18923e-05
6.54776e-05
7.11294e-05
7.29962e-05
7.04081e-05
7.90202e-05
6.79611e-05
7.60843e-05
7.1016e-05
6.34482e-05
6.693e-05
6.28474e-05
4.98331e-05
6.39677e-05
4.041e-05
6.1354e-05
3.66547e-05
5.92237e-05
4.46153e-05
5.98169e-05
6.25589e-05
6.36989e-05
7.21887e-05
7.35719e-05
6.92179e-05
7.69554e-05
6.43732e-05
7.44365e-05
6.7788e-05
6.00469e-05
6.56184e-05
6.10094e-05
4.50847e-05
6.33599e-05
3.56581e-05
6.2024e-05
3.51531e-05
6.18535e-05
4.50602e-05
5.99719e-05
6.35235e-05
6.23036e-05
7.17939e-05
7.06334e-05
6.60224e-05
7.89584e-05
6.3311e-05
7.64363e-05
6.82505e-05
5.90061e-05
6.72087e-05
6.15612e-05
4.43435e-05
6.66256e-05
3.58716e-05
6.56693e-05
3.52652e-05
6.41375e-05
4.49043e-05
6.08373e-05
6.58533e-05
6.1902e-05
7.4443e-05
7.1824e-05
6.57119e-05
7.76249e-05
5.72101e-05
7.50058e-05
6.58787e-05
5.31133e-05
6.70287e-05
5.98148e-05
3.86267e-05
6.70344e-05
2.97846e-05
6.66385e-05
3.06594e-05
6.46254e-05
4.14412e-05
5.78346e-05
6.58274e-05
5.69147e-05
7.31048e-05
6.86316e-05
5.9704e-05
7.9608e-05
5.68478e-05
7.8271e-05
6.5739e-05
5.28915e-05
6.95184e-05
6.00525e-05
3.6829e-05
7.12453e-05
2.83959e-05
7.12961e-05
2.97741e-05
6.86422e-05
4.13048e-05
6.02364e-05
6.84353e-05
5.73789e-05
7.71526e-05
6.9404e-05
6.05365e-05
7.84679e-05
4.80319e-05
7.7843e-05
6.26162e-05
4.37063e-05
7.07105e-05
5.80245e-05
2.8014e-05
7.22899e-05
1.94764e-05
7.24041e-05
2.16533e-05
6.81994e-05
3.3745e-05
5.44714e-05
6.75165e-05
4.91272e-05
7.57361e-05
6.46016e-05
5.133e-05
8.15732e-05
4.72755e-05
8.19667e-05
6.24795e-05
4.2538e-05
7.42192e-05
5.76773e-05
2.59822e-05
7.68574e-05
1.74106e-05
7.72863e-05
2.01184e-05
7.27972e-05
3.26681e-05
5.77658e-05
7.12651e-05
4.89999e-05
8.05647e-05
6.54638e-05
5.1539e-05
8.10105e-05
3.21037e-05
8.47203e-05
5.90046e-05
2.65743e-05
7.92834e-05
5.54922e-05
8.68102e-06
8.14431e-05
1.02394e-06
8.14586e-05
4.45453e-06
7.43361e-05
1.78669e-05
4.85141e-05
7.09634e-05
3.4249e-05
8.12227e-05
5.93414e-05
3.67336e-05
8.36066e-05
3.2199e-05
8.85712e-05
5.67045e-05
2.62424e-05
8.30127e-05
5.30161e-05
8.05293e-06
8.46307e-05
-1.68817e-07
8.46263e-05
3.56735e-06
7.74424e-05
1.70103e-05
5.24396e-05
7.31299e-05
3.44645e-05
8.54665e-05
5.79368e-05
3.74956e-05
8.72074e-05
4.36359e-06
0.000100611
5.06063e-05
-6.37049e-06
9.94426e-05
4.89104e-05
-2.69982e-05
9.77876e-05
-3.1959e-05
9.64135e-05
-2.71051e-05
8.53017e-05
-1.29071e-05
3.84894e-05
7.79447e-05
7.18006e-06
9.38745e-05
4.83698e-05
9.60281e-06
-0.0148947
-0.0142687
-0.0137538
-0.0133776
-0.0131625
-0.0131447
-0.013332
-0.0137022
-0.0142415
-0.0149072
-0.0156553
-0.016407
-0.01707
-0.0175408
-0.0177497
-0.0177048
-0.017422
-0.0169289
-0.0162912
-0.0155884
0.00143569
0.00154461
0.00151471
0.0014006
0.00125234
0.00112789
0.000951263
0.000718785
0.000408404
3.61685e-05
-0.000403583
-0.000858705
-0.00123873
-0.00144782
-0.00139592
-0.00104095
-0.000493954
0.000124622
0.000703499
0.00115611
-0.00309658
-0.00273822
-0.00249627
-0.00235564
-0.00236393
-0.00250341
-0.00274685
-0.00305008
-0.00346729