/*--------------------------------*- C++ -*----------------------------------*\
| =========                 |                                                 |
| \\      /  F ield         | OpenFOAM: The Open Source CFD Toolbox           |
|  \\    /   O peration     | Version:  2.4.0                                 |
|   \\  /    A nd           | Web:      www.OpenFOAM.org                      |
|    \\/     M anipulation  |                                                 |
\*---------------------------------------------------------------------------*/
FoamFile
{
    version     2.0;
    format      ascii;
    class       volScalarField;
    location    "210";
    object      nut;
}
// * * * * * * * * * * * * * * * * * * * * * * * * * * * * * * * * * * * * * //

dimensions      [0 2 -1 0 0 0 0];

internalField   nonuniform List<scalar> 
283312
(
2.30529e-06
1.94653e-06
1.77276e-06
1.80995e-06
2.04284e-06
2.42598e-06
2.89101e-06
3.36793e-06
3.80653e-06
4.17732e-06
4.466e-06
4.66514e-06
4.76801e-06
4.76946e-06
4.66984e-06
4.47132e-06
4.17546e-06
3.78643e-06
3.31933e-06
2.81292e-06
1.96248e-06
2.24605e-06
2.73176e-06
3.30768e-06
3.86139e-06
4.31619e-06
4.64848e-06
4.86805e-06
4.99518e-06
5.06443e-06
5.12036e-06
5.16809e-06
5.15343e-06
5.00817e-06
4.69264e-06
4.19411e-06
3.55301e-06
2.88479e-06
2.338e-06
2.03237e-06
2.93828e-06
3.53874e-06
4.06445e-06
4.45938e-06
4.72021e-06
4.8698e-06
4.94348e-06
4.97594e-06
4.97708e-06
5.06411e-06
5.37031e-06
5.75941e-06
5.86828e-06
5.44176e-06
4.54139e-06
3.46398e-06
2.57194e-06
2.10677e-06
2.0987e-06
2.44263e-06
3.95144e-06
4.3494e-06
4.60837e-06
4.7513e-06
4.81821e-06
4.84553e-06
4.85886e-06
4.86866e-06
4.8539e-06
5.28869e-06
6.51719e-06
7.92732e-06
8.37588e-06
7.32689e-06
5.48443e-06
3.7979e-06
2.86118e-06
2.67997e-06
2.97673e-06
3.47406e-06
4.49851e-06
4.65933e-06
4.74004e-06
4.77414e-06
4.78772e-06
4.79455e-06
4.80184e-06
4.81215e-06
4.86291e-06
6.17314e-06
9.10598e-06
1.22538e-05
1.38118e-05
1.27672e-05
9.28462e-06
5.90894e-06
4.21173e-06
3.80148e-06
3.96041e-06
4.25864e-06
4.66387e-06
4.72028e-06
4.74193e-06
4.74863e-06
4.75166e-06
4.75526e-06
4.76215e-06
4.77395e-06
4.90706e-06
6.57396e-06
9.42556e-06
1.17256e-05
1.18916e-05
9.62621e-06
6.67979e-06
4.79734e-06
4.1485e-06
4.15845e-06
4.36573e-06
4.55369e-06
4.68423e-06
4.71223e-06
4.72206e-06
4.72585e-06
4.72917e-06
4.73324e-06
4.73994e-06
4.7511e-06
4.88033e-06
5.67289e-06
6.63587e-06
7.60735e-06
7.7799e-06
6.32376e-06
4.78356e-06
4.08261e-06
4.05239e-06
4.27188e-06
4.48717e-06
4.62183e-06
4.68969e-06
4.70614e-06
4.71136e-06
4.71328e-06
4.71533e-06
4.71845e-06
4.72387e-06
4.7326e-06
4.74362e-06
3.97918e-06
2.84972e-06
2.12308e-06
2.10218e-06
2.58055e-06
3.03682e-06
3.50043e-06
3.96288e-06
4.32273e-06
4.54066e-06
4.64747e-06
4.69434e-06
4.70176e-06
4.70405e-06
4.70538e-06
4.70717e-06
4.70994e-06
4.71424e-06
4.72187e-06
4.72939e-06
3.87426e-06
2.77241e-06
2.00333e-06
1.7915e-06
2.16685e-06
2.85752e-06
3.56985e-06
4.11532e-06
4.44402e-06
4.60537e-06
4.67164e-06
4.69611e-06
4.6991e-06
4.69998e-06
4.70068e-06
4.70182e-06
4.70388e-06
4.70709e-06
4.7135e-06
4.71835e-06
3.73659e-06
2.61527e-06
1.90135e-06
1.77216e-06
2.26637e-06
3.07919e-06
3.81917e-06
4.30097e-06
4.54627e-06
4.6489e-06
4.6852e-06
4.69502e-06
4.69655e-06
4.69711e-06
4.69772e-06
4.69863e-06
4.70022e-06
4.70256e-06
4.70767e-06
4.70985e-06
3.61981e-06
2.49167e-06
1.8326e-06
1.8331e-06
2.4707e-06
3.33692e-06
4.02589e-06
4.42117e-06
4.60017e-06
4.66747e-06
4.68905e-06
4.69404e-06
4.69511e-06
4.6955e-06
4.69591e-06
4.69652e-06
4.69763e-06
4.69937e-06
4.7033e-06
4.70458e-06
3.53227e-06
2.42276e-06
1.85199e-06
1.95744e-06
2.6647e-06
3.51845e-06
4.14465e-06
4.48007e-06
4.62314e-06
4.67418e-06
4.68984e-06
4.69314e-06
4.69409e-06
4.69445e-06
4.69479e-06
4.69524e-06
4.69601e-06
4.69724e-06
4.69996e-06
4.7002e-06
3.47766e-06
2.33412e-06
1.75884e-06
1.95335e-06
2.73437e-06
3.59443e-06
4.19328e-06
4.50266e-06
4.63107e-06
4.67592e-06
4.68949e-06
4.69263e-06
4.69352e-06
4.69383e-06
4.69408e-06
4.69439e-06
4.69488e-06
4.69574e-06
4.69755e-06
4.69917e-06
3.46125e-06
2.37847e-06
1.85816e-06
2.05678e-06
2.81002e-06
3.63764e-06
4.21415e-06
4.5113e-06
4.63392e-06
4.67642e-06
4.6892e-06
4.69241e-06
4.69317e-06
4.69344e-06
4.69364e-06
4.69387e-06
4.69419e-06
4.69477e-06
4.69592e-06
4.6973e-06
3.42065e-06
2.2608e-06
1.79017e-06
2.1017e-06
2.9016e-06
3.71367e-06
4.25711e-06
4.53011e-06
4.64059e-06
4.67826e-06
4.68944e-06
4.69257e-06
4.69303e-06
4.6932e-06
4.69334e-06
4.6935e-06
4.69369e-06
4.69393e-06
4.69435e-06
4.69409e-06
3.63915e-06
2.37647e-06
1.95836e-06
2.38295e-06
3.20357e-06
3.93749e-06
4.37913e-06
4.58246e-06
4.65913e-06
4.68381e-06
4.69078e-06
4.69289e-06
4.69297e-06
4.69305e-06
4.69315e-06
4.69327e-06
4.69342e-06
4.6936e-06
4.69385e-06
4.69373e-06
4.56914e-06
4.49753e-06
4.52957e-06
4.59252e-06
4.63576e-06
4.65572e-06
4.67314e-06
4.68474e-06
4.6902e-06
4.69215e-06
4.69273e-06
4.69283e-06
4.69286e-06
4.69292e-06
4.693e-06
4.69309e-06
4.69319e-06
4.6933e-06
4.69344e-06
4.69364e-06
4.69053e-06
4.68901e-06
4.69e-06
4.69154e-06
4.69237e-06
4.69249e-06
4.69262e-06
4.69276e-06
4.69282e-06
4.69282e-06
4.69282e-06
4.69275e-06
4.69278e-06
4.69282e-06
4.69289e-06
4.69296e-06
4.69304e-06
4.69313e-06
4.6932e-06
4.69325e-06
4.69323e-06
4.69314e-06
4.69313e-06
4.69317e-06
4.69314e-06
4.69308e-06
4.69299e-06
4.6929e-06
4.69283e-06
4.69278e-06
4.69275e-06
4.69268e-06
4.69271e-06
4.69274e-06
4.69279e-06
4.69285e-06
4.69292e-06
4.69298e-06
4.69305e-06
4.6931e-06
4.6931e-06
4.69304e-06
4.69299e-06
4.69299e-06
4.69298e-06
4.69295e-06
4.69289e-06
4.69281e-06
4.69275e-06
4.69271e-06
4.69269e-06
4.69263e-06
4.69264e-06
4.69267e-06
4.69271e-06
4.69276e-06
4.69282e-06
4.69287e-06
4.69291e-06
4.69294e-06
4.69295e-06
4.69292e-06
4.6929e-06
4.6929e-06
4.69288e-06
4.69284e-06
4.69279e-06
4.69274e-06
4.69269e-06
4.69265e-06
4.69263e-06
4.69258e-06
4.69259e-06
4.69261e-06
4.69264e-06
4.69268e-06
4.69273e-06
4.69277e-06
4.69281e-06
4.69284e-06
4.69285e-06
4.69283e-06
4.69281e-06
4.6928e-06
4.69279e-06
4.69276e-06
4.69272e-06
4.69268e-06
4.69264e-06
4.6926e-06
4.69258e-06
4.69253e-06
4.69254e-06
4.69256e-06
4.69258e-06
4.69261e-06
4.69265e-06
4.69269e-06
4.69272e-06
4.69275e-06
4.69276e-06
4.69275e-06
4.69274e-06
4.69274e-06
4.69272e-06
4.6927e-06
4.69266e-06
4.69263e-06
4.69259e-06
4.69256e-06
4.69254e-06
4.69249e-06
4.6925e-06
4.69251e-06
4.69253e-06
4.69255e-06
4.69259e-06
4.69262e-06
4.69265e-06
4.69267e-06
4.69269e-06
4.69268e-06
4.69268e-06
4.69267e-06
4.69266e-06
4.69264e-06
4.69261e-06
4.69258e-06
4.69255e-06
4.69252e-06
4.6925e-06
4.69245e-06
4.69245e-06
4.69246e-06
4.69248e-06
4.6925e-06
4.69253e-06
4.69255e-06
4.69258e-06
4.6926e-06
4.69261e-06
4.69262e-06
4.69261e-06
4.69261e-06
4.6926e-06
4.69258e-06
4.69256e-06
4.69253e-06
4.6925e-06
4.69248e-06
4.69246e-06
4.69242e-06
4.69242e-06
4.69242e-06
4.69243e-06
4.69245e-06
4.69247e-06
4.6925e-06
4.69252e-06
4.69254e-06
4.69255e-06
4.69256e-06
4.69256e-06
4.69256e-06
4.69255e-06
4.69254e-06
4.69251e-06
4.69249e-06
4.69246e-06
4.69244e-06
4.69243e-06
4.69238e-06
4.69238e-06
4.69238e-06
4.69239e-06
4.69241e-06
4.69243e-06
4.69245e-06
4.69247e-06
4.69249e-06
4.6925e-06
4.69251e-06
4.69251e-06
4.69251e-06
4.6925e-06
4.69249e-06
4.69247e-06
4.69245e-06
4.69243e-06
4.69241e-06
4.69239e-06
4.69235e-06
4.69235e-06
4.69235e-06
4.69236e-06
4.69237e-06
4.69238e-06
4.6924e-06
4.69242e-06
4.69244e-06
4.69245e-06
4.69246e-06
4.69246e-06
4.69246e-06
4.69246e-06
4.69245e-06
4.69243e-06
4.69242e-06
4.6924e-06
4.69238e-06
4.69236e-06
4.69232e-06
4.69232e-06
4.69232e-06
4.69233e-06
4.69233e-06
4.69235e-06
4.69236e-06
4.69238e-06
4.69239e-06
4.69241e-06
4.69242e-06
4.69242e-06
4.69242e-06
4.69242e-06
4.69241e-06
4.6924e-06
4.69238e-06
4.69237e-06
4.69235e-06
4.69234e-06
4.6923e-06
4.69229e-06
4.69229e-06
4.6923e-06
4.6923e-06
4.69231e-06
4.69233e-06
4.69234e-06
4.69236e-06
4.69237e-06
4.69238e-06
4.69238e-06
4.69239e-06
4.69239e-06
4.69238e-06
4.69237e-06
4.69235e-06
4.69234e-06
4.69232e-06
4.69231e-06
4.69228e-06
4.69227e-06
4.69227e-06
4.69227e-06
4.69228e-06
4.69229e-06
4.6923e-06
4.69231e-06
4.69232e-06
4.69234e-06
4.69235e-06
4.69235e-06
4.69236e-06
4.69235e-06
4.69235e-06
4.69234e-06
4.69233e-06
4.69231e-06
4.6923e-06
4.69229e-06
4.69226e-06
4.69225e-06
4.69225e-06
4.69225e-06
4.69225e-06
4.69226e-06
4.69227e-06
4.69228e-06
4.6923e-06
4.69231e-06
4.69232e-06
4.69232e-06
4.69233e-06
4.69233e-06
4.69232e-06
4.69232e-06
4.6923e-06
4.69229e-06
4.69228e-06
4.69227e-06
4.69224e-06
4.69223e-06
4.69223e-06
4.69223e-06
4.69223e-06
4.69224e-06
4.69225e-06
4.69226e-06
4.69227e-06
4.69228e-06
4.69229e-06
4.6923e-06
4.6923e-06
4.6923e-06
4.6923e-06
4.69229e-06
4.69228e-06
4.69227e-06
4.69226e-06
4.69225e-06
4.69222e-06
4.69222e-06
4.69221e-06
4.69221e-06
4.69221e-06
4.69222e-06
4.69223e-06
4.69224e-06
4.69225e-06
4.69226e-06
4.69227e-06
4.69228e-06
4.69228e-06
4.69228e-06
4.69228e-06
4.69228e-06
4.69227e-06
4.69226e-06
4.69224e-06
4.69223e-06
4.69221e-06
4.6922e-06
4.6922e-06
4.6922e-06
4.6922e-06
4.6922e-06
4.69221e-06
4.69222e-06
4.69223e-06
4.69224e-06
4.69225e-06
4.69226e-06
4.69226e-06
4.69227e-06
4.69226e-06
4.69226e-06
4.69225e-06
4.69224e-06
4.69223e-06
4.69222e-06
4.6922e-06
4.69219e-06
4.69219e-06
4.69219e-06
4.69219e-06
4.69219e-06
4.6922e-06
4.69221e-06
4.69222e-06
4.69223e-06
4.69224e-06
4.69224e-06
4.69225e-06
4.69225e-06
4.69225e-06
4.69225e-06
4.69224e-06
4.69223e-06
4.69222e-06
4.69221e-06
4.69219e-06
4.69219e-06
4.69218e-06
4.69218e-06
4.69218e-06
4.69218e-06
4.69219e-06
4.6922e-06
4.69221e-06
4.69221e-06
4.69222e-06
4.69223e-06
4.69224e-06
4.69224e-06
4.69224e-06
4.69224e-06
4.69223e-06
4.69222e-06
4.69221e-06
4.6922e-06
4.69219e-06
4.69218e-06
4.69218e-06
4.69217e-06
4.69217e-06
4.69218e-06
4.69218e-06
4.69219e-06
4.6922e-06
4.69221e-06
4.69222e-06
4.69222e-06
4.69223e-06
4.69223e-06
4.69223e-06
4.69223e-06
4.69222e-06
4.69222e-06
4.69221e-06
4.6922e-06
4.6922e-06
4.69219e-06
4.69218e-06
4.69218e-06
4.69218e-06
4.69218e-06
4.69219e-06
4.6922e-06
4.69221e-06
4.69221e-06
4.69222e-06
4.69223e-06
4.69224e-06
4.69224e-06
4.69224e-06
4.69224e-06
4.69223e-06
4.69222e-06
4.69221e-06
4.6922e-06
4.6944e-06
4.69473e-06
4.69433e-06
4.69428e-06
4.69477e-06
4.69439e-06
4.69432e-06
4.69494e-06
4.69447e-06
4.69506e-06
4.69451e-06
4.69513e-06
4.69453e-06
4.69513e-06
4.69527e-06
4.69451e-06
4.69497e-06
4.69443e-06
4.69432e-06
4.69482e-06
2.22195e-06
1.89205e-06
1.75905e-06
1.8403e-06
2.11221e-06
2.52381e-06
3.00072e-06
3.47627e-06
3.90469e-06
4.26e-06
4.53052e-06
4.71041e-06
4.7933e-06
4.77368e-06
4.65216e-06
4.43214e-06
4.11563e-06
3.70791e-06
3.22708e-06
2.71723e-06
2.04605e-06
2.36109e-06
2.86328e-06
3.43541e-06
3.96875e-06
4.39542e-06
4.70186e-06
4.90091e-06
5.0117e-06
5.06935e-06
5.12381e-06
5.18341e-06
5.18992e-06
5.06633e-06
4.76264e-06
4.25874e-06
3.59978e-06
2.91585e-06
2.36926e-06
2.08375e-06
3.07824e-06
3.65846e-06
4.15444e-06
4.51949e-06
4.75582e-06
4.8878e-06
4.95176e-06
4.97929e-06
4.97432e-06
5.06475e-06
5.40395e-06
5.85084e-06
6.01206e-06
5.60551e-06
4.69091e-06
3.58366e-06
2.67323e-06
2.21345e-06
2.22467e-06
2.58331e-06
4.04001e-06
4.40962e-06
4.64441e-06
4.77074e-06
4.82826e-06
4.85149e-06
4.86348e-06
4.87285e-06
4.84915e-06
5.30715e-06
6.63412e-06
8.17914e-06
8.70113e-06
7.61375e-06
5.68695e-06
3.93069e-06
2.97291e-06
2.79787e-06
3.09876e-06
3.58517e-06
4.54188e-06
4.68381e-06
4.75348e-06
4.78222e-06
4.79372e-06
4.79992e-06
4.80717e-06
4.81745e-06
4.85937e-06
6.25771e-06
9.43537e-06
1.28956e-05
1.46717e-05
1.35914e-05
9.83391e-06
6.20902e-06
4.39349e-06
3.93349e-06
4.05941e-06
4.32732e-06
4.68413e-06
4.73193e-06
4.74979e-06
4.75514e-06
4.75792e-06
4.76153e-06
4.76852e-06
4.78035e-06
4.9123e-06
6.71844e-06
9.86882e-06
1.24696e-05
1.27144e-05
1.02642e-05
7.06911e-06
5.02062e-06
4.29056e-06
4.25385e-06
4.42676e-06
4.58956e-06
4.69899e-06
4.72182e-06
4.72972e-06
4.73291e-06
4.73609e-06
4.7401e-06
4.74681e-06
4.75796e-06
4.88799e-06
5.77823e-06
6.94797e-06
8.19469e-06
8.48548e-06
6.87648e-06
5.13251e-06
4.29754e-06
4.18889e-06
4.35557e-06
4.53474e-06
4.64752e-06
4.70131e-06
4.71469e-06
4.71888e-06
4.72053e-06
4.72256e-06
4.72568e-06
4.73111e-06
4.73983e-06
4.75081e-06
3.94897e-06
2.80559e-06
2.11546e-06
2.17968e-06
2.73935e-06
3.20876e-06
3.64588e-06
4.06669e-06
4.3864e-06
4.57567e-06
4.66636e-06
4.70359e-06
4.70968e-06
4.71159e-06
4.71284e-06
4.71461e-06
4.71737e-06
4.72165e-06
4.72928e-06
4.73666e-06
3.84105e-06
2.72681e-06
1.97505e-06
1.80614e-06
2.23546e-06
2.95659e-06
3.66366e-06
4.18258e-06
4.48402e-06
4.62735e-06
4.68455e-06
4.70427e-06
4.70677e-06
4.70754e-06
4.70823e-06
4.70938e-06
4.71144e-06
4.71464e-06
4.72106e-06
4.72571e-06
3.70093e-06
2.57347e-06
1.87557e-06
1.77659e-06
2.30957e-06
3.14437e-06
3.87881e-06
4.34161e-06
4.57008e-06
4.66296e-06
4.69492e-06
4.70291e-06
4.70423e-06
4.70475e-06
4.70536e-06
4.70627e-06
4.70786e-06
4.71018e-06
4.71529e-06
4.71725e-06
3.58216e-06
2.45308e-06
1.81092e-06
1.8391e-06
2.50718e-06
3.38623e-06
4.06749e-06
4.44843e-06
4.61666e-06
4.67837e-06
4.69769e-06
4.70187e-06
4.70281e-06
4.70317e-06
4.70359e-06
4.7042e-06
4.70532e-06
4.70705e-06
4.71098e-06
4.71205e-06
3.49294e-06
2.38868e-06
1.83645e-06
1.9667e-06
2.69893e-06
3.56047e-06
4.17842e-06
4.50203e-06
4.63697e-06
4.68404e-06
4.69816e-06
4.70098e-06
4.70182e-06
4.70216e-06
4.7025e-06
4.70295e-06
4.70372e-06
4.70495e-06
4.70766e-06
4.70773e-06
3.43791e-06
2.29974e-06
1.7438e-06
1.96447e-06
2.76834e-06
3.63394e-06
4.2243e-06
4.52282e-06
4.64405e-06
4.68548e-06
4.69775e-06
4.70048e-06
4.70127e-06
4.70156e-06
4.70181e-06
4.70212e-06
4.70261e-06
4.70346e-06
4.70527e-06
4.70679e-06
3.42196e-06
2.34898e-06
1.84646e-06
2.06835e-06
2.84281e-06
3.67571e-06
4.24413e-06
4.53088e-06
4.64663e-06
4.68589e-06
4.69744e-06
4.70025e-06
4.70093e-06
4.70117e-06
4.70137e-06
4.7016e-06
4.70192e-06
4.70251e-06
4.70365e-06
4.70497e-06
3.37978e-06
2.22778e-06
1.77911e-06
2.11611e-06
2.93588e-06
3.75122e-06
4.28587e-06
4.54874e-06
4.65281e-06
4.68754e-06
4.69762e-06
4.70037e-06
4.70077e-06
4.70094e-06
4.70108e-06
4.70124e-06
4.70143e-06
4.70167e-06
4.70209e-06
4.70184e-06
3.60321e-06
2.33114e-06
1.94243e-06
2.40181e-06
3.24205e-06
3.97422e-06
4.40472e-06
4.59854e-06
4.67004e-06
4.69257e-06
4.6988e-06
4.70063e-06
4.7007e-06
4.70078e-06
4.70089e-06
4.70101e-06
4.70116e-06
4.70133e-06
4.70158e-06
4.70146e-06
4.5718e-06
4.50253e-06
4.53891e-06
4.60316e-06
4.6455e-06
4.66512e-06
4.68217e-06
4.69319e-06
4.69822e-06
4.69998e-06
4.70048e-06
4.70056e-06
4.7006e-06
4.70066e-06
4.70074e-06
4.70083e-06
4.70093e-06
4.70104e-06
4.70118e-06
4.70138e-06
4.69816e-06
4.69673e-06
4.69781e-06
4.69936e-06
4.70015e-06
4.70026e-06
4.70038e-06
4.70051e-06
4.70056e-06
4.70055e-06
4.70055e-06
4.70048e-06
4.70051e-06
4.70056e-06
4.70062e-06
4.7007e-06
4.70078e-06
4.70087e-06
4.70094e-06
4.70099e-06
4.70097e-06
4.70088e-06
4.70087e-06
4.70091e-06
4.70087e-06
4.7008e-06
4.70072e-06
4.70063e-06
4.70056e-06
4.7005e-06
4.70048e-06
4.70042e-06
4.70044e-06
4.70048e-06
4.70053e-06
4.70059e-06
4.70066e-06
4.70072e-06
4.70079e-06
4.70084e-06
4.70084e-06
4.70078e-06
4.70072e-06
4.70072e-06
4.70071e-06
4.70068e-06
4.70062e-06
4.70054e-06
4.70048e-06
4.70044e-06
4.70042e-06
4.70036e-06
4.70038e-06
4.70041e-06
4.70045e-06
4.7005e-06
4.70055e-06
4.70061e-06
4.70065e-06
4.70068e-06
4.70069e-06
4.70066e-06
4.70064e-06
4.70063e-06
4.70061e-06
4.70057e-06
4.70052e-06
4.70047e-06
4.70042e-06
4.70038e-06
4.70037e-06
4.70031e-06
4.70032e-06
4.70035e-06
4.70038e-06
4.70042e-06
4.70047e-06
4.70051e-06
4.70055e-06
4.70058e-06
4.70059e-06
4.70057e-06
4.70055e-06
4.70054e-06
4.70052e-06
4.7005e-06
4.70046e-06
4.70041e-06
4.70037e-06
4.70033e-06
4.70032e-06
4.70027e-06
4.70028e-06
4.70029e-06
4.70032e-06
4.70035e-06
4.70039e-06
4.70043e-06
4.70046e-06
4.70049e-06
4.7005e-06
4.70049e-06
4.70048e-06
4.70047e-06
4.70046e-06
4.70043e-06
4.70039e-06
4.70036e-06
4.70032e-06
4.70029e-06
4.70027e-06
4.70023e-06
4.70023e-06
4.70024e-06
4.70026e-06
4.70029e-06
4.70032e-06
4.70036e-06
4.70039e-06
4.70041e-06
4.70042e-06
4.70042e-06
4.70041e-06
4.7004e-06
4.70039e-06
4.70037e-06
4.70034e-06
4.70031e-06
4.70028e-06
4.70025e-06
4.70023e-06
4.70019e-06
4.70019e-06
4.7002e-06
4.70021e-06
4.70024e-06
4.70026e-06
4.70029e-06
4.70032e-06
4.70034e-06
4.70035e-06
4.70035e-06
4.70035e-06
4.70035e-06
4.70033e-06
4.70032e-06
4.70029e-06
4.70026e-06
4.70024e-06
4.70021e-06
4.7002e-06
4.70015e-06
4.70015e-06
4.70016e-06
4.70017e-06
4.70019e-06
4.70021e-06
4.70023e-06
4.70026e-06
4.70028e-06
4.70029e-06
4.70029e-06
4.70029e-06
4.70029e-06
4.70028e-06
4.70027e-06
4.70025e-06
4.70022e-06
4.7002e-06
4.70018e-06
4.70016e-06
4.70012e-06
4.70011e-06
4.70012e-06
4.70013e-06
4.70014e-06
4.70016e-06
4.70018e-06
4.7002e-06
4.70022e-06
4.70024e-06
4.70024e-06
4.70024e-06
4.70024e-06
4.70024e-06
4.70022e-06
4.70021e-06
4.70018e-06
4.70016e-06
4.70014e-06
4.70013e-06
4.70009e-06
4.70008e-06
4.70008e-06
4.70009e-06
4.7001e-06
4.70012e-06
4.70014e-06
4.70016e-06
4.70017e-06
4.70019e-06
4.70019e-06
4.7002e-06
4.7002e-06
4.70019e-06
4.70018e-06
4.70017e-06
4.70015e-06
4.70013e-06
4.70011e-06
4.7001e-06
4.70006e-06
4.70005e-06
4.70005e-06
4.70006e-06
4.70007e-06
4.70008e-06
4.7001e-06
4.70012e-06
4.70013e-06
4.70014e-06
4.70015e-06
4.70016e-06
4.70016e-06
4.70015e-06
4.70015e-06
4.70013e-06
4.70012e-06
4.7001e-06
4.70008e-06
4.70007e-06
4.70003e-06
4.70003e-06
4.70003e-06
4.70003e-06
4.70004e-06
4.70005e-06
4.70006e-06
4.70008e-06
4.70009e-06
4.7001e-06
4.70011e-06
4.70012e-06
4.70012e-06
4.70012e-06
4.70011e-06
4.7001e-06
4.70009e-06
4.70007e-06
4.70006e-06
4.70004e-06
4.70001e-06
4.7e-06
4.7e-06
4.7e-06
4.70001e-06
4.70002e-06
4.70003e-06
4.70005e-06
4.70006e-06
4.70007e-06
4.70008e-06
4.70009e-06
4.70009e-06
4.70009e-06
4.70008e-06
4.70007e-06
4.70006e-06
4.70005e-06
4.70003e-06
4.70002e-06
4.69999e-06
4.69998e-06
4.69998e-06
4.69998e-06
4.69999e-06
4.7e-06
4.70001e-06
4.70002e-06
4.70003e-06
4.70004e-06
4.70005e-06
4.70006e-06
4.70006e-06
4.70006e-06
4.70006e-06
4.70005e-06
4.70004e-06
4.70002e-06
4.70001e-06
4.7e-06
4.69997e-06
4.69997e-06
4.69996e-06
4.69996e-06
4.69997e-06
4.69997e-06
4.69998e-06
4.69999e-06
4.7e-06
4.70002e-06
4.70003e-06
4.70003e-06
4.70004e-06
4.70004e-06
4.70003e-06
4.70003e-06
4.70002e-06
4.7e-06
4.69999e-06
4.69998e-06
4.69996e-06
4.69995e-06
4.69995e-06
4.69995e-06
4.69995e-06
4.69995e-06
4.69996e-06
4.69997e-06
4.69998e-06
4.69999e-06
4.7e-06
4.70001e-06
4.70002e-06
4.70002e-06
4.70001e-06
4.70001e-06
4.7e-06
4.69999e-06
4.69998e-06
4.69997e-06
4.69994e-06
4.69994e-06
4.69993e-06
4.69993e-06
4.69993e-06
4.69994e-06
4.69995e-06
4.69996e-06
4.69997e-06
4.69998e-06
4.69998e-06
4.69999e-06
4.7e-06
4.7e-06
4.7e-06
4.69999e-06
4.69998e-06
4.69997e-06
4.69996e-06
4.69995e-06
4.69993e-06
4.69993e-06
4.69992e-06
4.69992e-06
4.69992e-06
4.69993e-06
4.69993e-06
4.69994e-06
4.69995e-06
4.69996e-06
4.69997e-06
4.69998e-06
4.69998e-06
4.69999e-06
4.69998e-06
4.69998e-06
4.69997e-06
4.69996e-06
4.69995e-06
4.69994e-06
4.69993e-06
4.69992e-06
4.69991e-06
4.69991e-06
4.69991e-06
4.69992e-06
4.69992e-06
4.69993e-06
4.69994e-06
4.69995e-06
4.69996e-06
4.69997e-06
4.69997e-06
4.69997e-06
4.69997e-06
4.69997e-06
4.69996e-06
4.69995e-06
4.69994e-06
4.69993e-06
4.69992e-06
4.69991e-06
4.69991e-06
4.69991e-06
4.69991e-06
4.69991e-06
4.69992e-06
4.69992e-06
4.69993e-06
4.69994e-06
4.69995e-06
4.69996e-06
4.69996e-06
4.69997e-06
4.69997e-06
4.69996e-06
4.69996e-06
4.69995e-06
4.69994e-06
4.69993e-06
4.69993e-06
4.69992e-06
4.69992e-06
4.69991e-06
4.69991e-06
4.69992e-06
4.69992e-06
4.69993e-06
4.69994e-06
4.69995e-06
4.69996e-06
4.69996e-06
4.69997e-06
4.69997e-06
4.69997e-06
4.69997e-06
4.69996e-06
4.69995e-06
4.69994e-06
4.69994e-06
4.70205e-06
4.70235e-06
4.70199e-06
4.70194e-06
4.70239e-06
4.70205e-06
4.70199e-06
4.70256e-06
4.70213e-06
4.70266e-06
4.70215e-06
4.70273e-06
4.70218e-06
4.70273e-06
4.70285e-06
4.70215e-06
4.70258e-06
4.70208e-06
4.70199e-06
4.70244e-06
2.14221e-06
1.84543e-06
1.75595e-06
1.88188e-06
2.19154e-06
2.62758e-06
3.11298e-06
3.58481e-06
4.00133e-06
4.33987e-06
4.59121e-06
4.75106e-06
4.81337e-06
4.77218e-06
4.62829e-06
4.38644e-06
4.04922e-06
3.62335e-06
3.13046e-06
2.62041e-06
2.13779e-06
2.4814e-06
2.9955e-06
3.55984e-06
4.07065e-06
4.47004e-06
4.75174e-06
4.93118e-06
5.02595e-06
5.07181e-06
5.12518e-06
5.19851e-06
5.22945e-06
5.13101e-06
4.84116e-06
4.33141e-06
3.65302e-06
2.95273e-06
2.40729e-06
2.1433e-06
3.21443e-06
3.77269e-06
4.23892e-06
4.57507e-06
4.78816e-06
4.90392e-06
4.9592e-06
4.98233e-06
4.97053e-06
5.06282e-06
5.43424e-06
5.93933e-06
6.15409e-06
5.76883e-06
4.84079e-06
3.70357e-06
2.77567e-06
2.32247e-06
2.3523e-06
2.72286e-06
4.12338e-06
4.4654e-06
4.67733e-06
4.78837e-06
4.83752e-06
4.85726e-06
4.86815e-06
4.87715e-06
4.84297e-06
5.31988e-06
6.73811e-06
8.40711e-06
8.99234e-06
7.86629e-06
5.86433e-06
4.04987e-06
3.07903e-06
2.91268e-06
3.21703e-06
3.69129e-06
4.58191e-06
4.7063e-06
4.76596e-06
4.78998e-06
4.79974e-06
4.80541e-06
4.81267e-06
4.82289e-06
4.85363e-06
6.33152e-06
9.73455e-06
1.34778e-05
1.54476e-05
1.43236e-05
1.03144e-05
6.4737e-06
4.55935e-06
4.05683e-06
4.1522e-06
4.3912e-06
4.70284e-06
4.74293e-06
4.75751e-06
4.76173e-06
4.76432e-06
4.76796e-06
4.77505e-06
4.78688e-06
4.91584e-06
6.85377e-06
1.02869e-05
1.31634e-05
1.34642e-05
1.08377e-05
7.41782e-06
5.22256e-06
4.42092e-06
4.34187e-06
4.48292e-06
4.62244e-06
4.71274e-06
4.7311e-06
4.73739e-06
4.74009e-06
4.74315e-06
4.74712e-06
4.75384e-06
4.76496e-06
4.89435e-06
5.88143e-06
7.26325e-06
8.79202e-06
9.18632e-06
7.41317e-06
5.46387e-06
4.49798e-06
4.31447e-06
4.43172e-06
4.57775e-06
4.67087e-06
4.7124e-06
4.72315e-06
4.72649e-06
4.72794e-06
4.72994e-06
4.73307e-06
4.7385e-06
4.74722e-06
4.75814e-06
3.91717e-06
2.7613e-06
2.11063e-06
2.26473e-06
2.90151e-06
3.37633e-06
3.78308e-06
4.16233e-06
4.44417e-06
4.60733e-06
4.68372e-06
4.71271e-06
4.71766e-06
4.71927e-06
4.72045e-06
4.72221e-06
4.72495e-06
4.72922e-06
4.73684e-06
4.74407e-06
3.80612e-06
2.6807e-06
1.9475e-06
1.82251e-06
2.30442e-06
3.05276e-06
3.75231e-06
4.24486e-06
4.52069e-06
4.64765e-06
4.69681e-06
4.71248e-06
4.71457e-06
4.71526e-06
4.71594e-06
4.7171e-06
4.71917e-06
4.72234e-06
4.72877e-06
4.73322e-06
3.66364e-06
2.53158e-06
1.85053e-06
1.78214e-06
2.35331e-06
3.20838e-06
3.93604e-06
4.38001e-06
4.59253e-06
4.67644e-06
4.70451e-06
4.71092e-06
4.71206e-06
4.71255e-06
4.71316e-06
4.71407e-06
4.71565e-06
4.71796e-06
4.72307e-06
4.72478e-06
3.54298e-06
2.41469e-06
1.79003e-06
1.84626e-06
2.54467e-06
3.43553e-06
4.10828e-06
4.47485e-06
4.63266e-06
4.68913e-06
4.70637e-06
4.70984e-06
4.71066e-06
4.71101e-06
4.71143e-06
4.71204e-06
4.71316e-06
4.71488e-06
4.7188e-06
4.71967e-06
3.45214e-06
2.35515e-06
1.82171e-06
1.97702e-06
2.73424e-06
3.60287e-06
4.21193e-06
4.5236e-06
4.6506e-06
4.69389e-06
4.70658e-06
4.70896e-06
4.7097e-06
4.71002e-06
4.71036e-06
4.71082e-06
4.71158e-06
4.71281e-06
4.71552e-06
4.7154e-06
3.39678e-06
2.2659e-06
1.72958e-06
1.97662e-06
2.80338e-06
3.67391e-06
4.25519e-06
4.54271e-06
4.65689e-06
4.69505e-06
4.70611e-06
4.70847e-06
4.70916e-06
4.70944e-06
4.70969e-06
4.71e-06
4.71049e-06
4.71134e-06
4.71314e-06
4.71455e-06
3.38138e-06
2.32026e-06
1.83548e-06
2.08087e-06
2.87665e-06
3.71427e-06
4.27402e-06
4.55021e-06
4.65922e-06
4.69537e-06
4.70578e-06
4.70824e-06
4.70883e-06
4.70906e-06
4.70926e-06
4.70949e-06
4.70981e-06
4.7104e-06
4.71154e-06
4.71279e-06
3.33759e-06
2.19542e-06
1.76889e-06
2.13154e-06
2.97117e-06
3.78919e-06
4.3145e-06
4.56714e-06
4.66493e-06
4.69685e-06
4.70592e-06
4.70831e-06
4.70867e-06
4.70883e-06
4.70897e-06
4.70913e-06
4.70932e-06
4.70957e-06
4.70999e-06
4.70975e-06
3.56577e-06
2.2856e-06
1.92762e-06
2.42226e-06
3.28163e-06
4.01111e-06
4.43003e-06
4.61439e-06
4.6809e-06
4.70139e-06
4.70694e-06
4.70852e-06
4.70859e-06
4.70867e-06
4.70878e-06
4.7089e-06
4.70905e-06
4.70923e-06
4.70948e-06
4.70935e-06
4.57441e-06
4.50779e-06
4.5486e-06
4.61402e-06
4.65536e-06
4.67466e-06
4.69131e-06
4.70175e-06
4.70638e-06
4.70795e-06
4.70839e-06
4.70845e-06
4.70849e-06
4.70855e-06
4.70863e-06
4.70872e-06
4.70883e-06
4.70894e-06
4.70908e-06
4.70928e-06
4.70594e-06
4.70461e-06
4.70578e-06
4.70734e-06
4.70808e-06
4.70818e-06
4.7083e-06
4.70841e-06
4.70845e-06
4.70844e-06
4.70843e-06
4.70837e-06
4.7084e-06
4.70845e-06
4.70852e-06
4.70859e-06
4.70868e-06
4.70876e-06
4.70884e-06
4.70889e-06
4.70886e-06
4.70877e-06
4.70876e-06
4.7088e-06
4.70876e-06
4.70869e-06
4.7086e-06
4.70851e-06
4.70844e-06
4.70839e-06
4.70837e-06
4.70831e-06
4.70833e-06
4.70837e-06
4.70842e-06
4.70848e-06
4.70855e-06
4.70862e-06
4.70868e-06
4.70874e-06
4.70873e-06
4.70867e-06
4.70862e-06
4.70861e-06
4.7086e-06
4.70857e-06
4.7085e-06
4.70843e-06
4.70836e-06
4.70832e-06
4.7083e-06
4.70825e-06
4.70827e-06
4.7083e-06
4.70834e-06
4.70839e-06
4.70845e-06
4.7085e-06
4.70855e-06
4.70858e-06
4.70858e-06
4.70855e-06
4.70853e-06
4.70852e-06
4.7085e-06
4.70846e-06
4.70841e-06
4.70835e-06
4.70831e-06
4.70827e-06
4.70825e-06
4.7082e-06
4.70821e-06
4.70824e-06
4.70827e-06
4.70831e-06
4.70836e-06
4.70841e-06
4.70845e-06
4.70848e-06
4.70848e-06
4.70846e-06
4.70844e-06
4.70843e-06
4.70841e-06
4.70838e-06
4.70834e-06
4.7083e-06
4.70825e-06
4.70822e-06
4.70821e-06
4.70816e-06
4.70817e-06
4.70818e-06
4.70821e-06
4.70825e-06
4.70828e-06
4.70832e-06
4.70836e-06
4.70838e-06
4.70839e-06
4.70838e-06
4.70837e-06
4.70836e-06
4.70834e-06
4.70832e-06
4.70828e-06
4.70824e-06
4.70821e-06
4.70818e-06
4.70816e-06
4.70812e-06
4.70812e-06
4.70813e-06
4.70816e-06
4.70818e-06
4.70822e-06
4.70825e-06
4.70828e-06
4.7083e-06
4.70832e-06
4.70831e-06
4.7083e-06
4.70829e-06
4.70828e-06
4.70826e-06
4.70823e-06
4.7082e-06
4.70816e-06
4.70814e-06
4.70812e-06
4.70808e-06
4.70808e-06
4.70809e-06
4.70811e-06
4.70813e-06
4.70816e-06
4.70818e-06
4.70821e-06
4.70823e-06
4.70824e-06
4.70824e-06
4.70824e-06
4.70824e-06
4.70822e-06
4.70821e-06
4.70818e-06
4.70815e-06
4.70812e-06
4.7081e-06
4.70808e-06
4.70804e-06
4.70804e-06
4.70805e-06
4.70806e-06
4.70808e-06
4.7081e-06
4.70813e-06
4.70815e-06
4.70817e-06
4.70818e-06
4.70819e-06
4.70819e-06
4.70818e-06
4.70817e-06
4.70816e-06
4.70814e-06
4.70811e-06
4.70809e-06
4.70806e-06
4.70805e-06
4.70801e-06
4.708e-06
4.70801e-06
4.70802e-06
4.70804e-06
4.70805e-06
4.70808e-06
4.7081e-06
4.70811e-06
4.70813e-06
4.70813e-06
4.70814e-06
4.70813e-06
4.70813e-06
4.70811e-06
4.70809e-06
4.70807e-06
4.70805e-06
4.70803e-06
4.70802e-06
4.70798e-06
4.70797e-06
4.70798e-06
4.70798e-06
4.708e-06
4.70801e-06
4.70803e-06
4.70805e-06
4.70807e-06
4.70808e-06
4.70809e-06
4.70809e-06
4.70809e-06
4.70808e-06
4.70807e-06
4.70806e-06
4.70804e-06
4.70802e-06
4.708e-06
4.70799e-06
4.70795e-06
4.70794e-06
4.70794e-06
4.70795e-06
4.70796e-06
4.70797e-06
4.70799e-06
4.70801e-06
4.70802e-06
4.70803e-06
4.70804e-06
4.70805e-06
4.70805e-06
4.70804e-06
4.70804e-06
4.70802e-06
4.70801e-06
4.70799e-06
4.70797e-06
4.70796e-06
4.70792e-06
4.70792e-06
4.70792e-06
4.70792e-06
4.70793e-06
4.70794e-06
4.70795e-06
4.70797e-06
4.70798e-06
4.708e-06
4.708e-06
4.70801e-06
4.70801e-06
4.70801e-06
4.708e-06
4.70799e-06
4.70798e-06
4.70796e-06
4.70794e-06
4.70793e-06
4.7079e-06
4.70789e-06
4.70789e-06
4.7079e-06
4.7079e-06
4.70791e-06
4.70792e-06
4.70794e-06
4.70795e-06
4.70796e-06
4.70797e-06
4.70798e-06
4.70798e-06
4.70798e-06
4.70797e-06
4.70796e-06
4.70795e-06
4.70794e-06
4.70792e-06
4.70791e-06
4.70788e-06
4.70787e-06
4.70787e-06
4.70787e-06
4.70788e-06
4.70789e-06
4.7079e-06
4.70791e-06
4.70792e-06
4.70793e-06
4.70794e-06
4.70795e-06
4.70795e-06
4.70795e-06
4.70795e-06
4.70794e-06
4.70793e-06
4.70791e-06
4.7079e-06
4.70789e-06
4.70786e-06
4.70786e-06
4.70785e-06
4.70785e-06
4.70786e-06
4.70786e-06
4.70787e-06
4.70788e-06
4.7079e-06
4.70791e-06
4.70792e-06
4.70792e-06
4.70793e-06
4.70793e-06
4.70792e-06
4.70792e-06
4.70791e-06
4.70789e-06
4.70788e-06
4.70787e-06
4.70785e-06
4.70784e-06
4.70784e-06
4.70784e-06
4.70784e-06
4.70785e-06
4.70785e-06
4.70786e-06
4.70787e-06
4.70789e-06
4.70789e-06
4.7079e-06
4.70791e-06
4.70791e-06
4.7079e-06
4.7079e-06
4.70789e-06
4.70788e-06
4.70787e-06
4.70786e-06
4.70783e-06
4.70783e-06
4.70782e-06
4.70782e-06
4.70782e-06
4.70783e-06
4.70784e-06
4.70785e-06
4.70786e-06
4.70787e-06
4.70788e-06
4.70788e-06
4.70789e-06
4.70789e-06
4.70789e-06
4.70788e-06
4.70787e-06
4.70786e-06
4.70785e-06
4.70784e-06
4.70782e-06
4.70782e-06
4.70781e-06
4.70781e-06
4.70781e-06
4.70782e-06
4.70782e-06
4.70783e-06
4.70784e-06
4.70785e-06
4.70786e-06
4.70787e-06
4.70787e-06
4.70788e-06
4.70787e-06
4.70787e-06
4.70786e-06
4.70785e-06
4.70784e-06
4.70783e-06
4.70781e-06
4.70781e-06
4.7078e-06
4.7078e-06
4.7078e-06
4.70781e-06
4.70781e-06
4.70782e-06
4.70783e-06
4.70784e-06
4.70785e-06
4.70786e-06
4.70786e-06
4.70786e-06
4.70786e-06
4.70786e-06
4.70785e-06
4.70784e-06
4.70783e-06
4.70782e-06
4.70781e-06
4.7078e-06
4.7078e-06
4.7078e-06
4.7078e-06
4.7078e-06
4.70781e-06
4.70781e-06
4.70782e-06
4.70783e-06
4.70784e-06
4.70785e-06
4.70785e-06
4.70786e-06
4.70786e-06
4.70785e-06
4.70785e-06
4.70784e-06
4.70783e-06
4.70782e-06
4.70782e-06
4.70781e-06
4.70781e-06
4.7078e-06
4.7078e-06
4.70781e-06
4.70781e-06
4.70782e-06
4.70783e-06
4.70784e-06
4.70785e-06
4.70785e-06
4.70786e-06
4.70786e-06
4.70786e-06
4.70786e-06
4.70785e-06
4.70784e-06
4.70783e-06
4.70782e-06
4.70986e-06
4.71012e-06
4.7098e-06
4.70977e-06
4.71017e-06
4.70986e-06
4.70981e-06
4.71034e-06
4.70994e-06
4.71043e-06
4.70996e-06
4.7105e-06
4.70999e-06
4.7105e-06
4.7106e-06
4.70995e-06
4.71034e-06
4.70989e-06
4.70982e-06
4.71021e-06
2.06642e-06
1.80686e-06
1.76344e-06
1.93436e-06
2.28025e-06
2.73686e-06
3.22768e-06
3.69339e-06
4.09625e-06
4.41668e-06
4.6478e-06
4.78683e-06
4.82792e-06
4.76464e-06
4.59802e-06
4.33413e-06
3.97627e-06
3.53286e-06
3.02971e-06
2.5228e-06
2.23683e-06
2.6061e-06
3.12788e-06
3.68089e-06
4.16735e-06
4.54009e-06
4.79795e-06
4.95875e-06
5.03776e-06
5.07146e-06
5.12396e-06
5.21294e-06
5.2718e-06
5.20242e-06
4.92856e-06
4.41233e-06
3.7126e-06
2.99502e-06
2.45154e-06
2.21031e-06
3.34644e-06
3.88134e-06
4.31793e-06
4.6262e-06
4.81738e-06
4.91838e-06
4.96594e-06
4.98514e-06
4.96557e-06
5.0577e-06
5.4599e-06