/*--------------------------------*- C++ -*----------------------------------*\
| =========                 |                                                 |
| \\      /  F ield         | OpenFOAM: The Open Source CFD Toolbox           |
|  \\    /   O peration     | Version:  2.4.0                                 |
|   \\  /    A nd           | Web:      www.OpenFOAM.org                      |
|    \\/     M anipulation  |                                                 |
\*---------------------------------------------------------------------------*/
FoamFile
{
    version     2.0;
    format      ascii;
    class       volScalarField;
    location    "470";
    object      p;
}
// * * * * * * * * * * * * * * * * * * * * * * * * * * * * * * * * * * * * * //

dimensions      [0 2 -2 0 0 0 0];

internalField   nonuniform List<scalar> 
283312
(
-0.00626857
-0.00632686
-0.00656641
-0.00690721
-0.00726127
-0.00755943
-0.00779352
-0.00795812
-0.00808537
-0.00819861
-0.00831791
-0.00842978
-0.00850218
-0.00847937
-0.00832814
-0.00805563
-0.00767267
-0.00721623
-0.00676767
-0.00642533
0.00215263
0.0016488
0.00122061
0.000949359
0.000848179
0.000912087
0.00105375
0.00119376
0.00130389
0.00139158
0.00145914
0.00153827
0.00166698
0.00186792
0.00215429
0.00252514
0.00284221
0.00299539
0.00292072
0.00261661
-0.00230068
-0.00215138
-0.00192952
-0.00169047
-0.00149915
-0.00140313
-0.00138587
-0.00139352
-0.00144412
-0.00148753
-0.00151948
-0.00149912
-0.00142728
-0.00132576
-0.00127675
-0.00137946
-0.00161557
-0.00190624
-0.00216653
-0.00230988
0.00148362
0.0016551
0.00179814
0.00191251
0.0019953
0.00206367
0.00207019
0.00207608
0.00204217
0.00205202
0.0020684
0.00211579
0.00214642
0.00210799
0.00198523
0.00174855
0.0015013
0.00131873
0.00126354
0.00133616
-0.000743765
-0.000546169
-0.000430001
-0.000352291
-0.000349527
-0.000337399
-0.000349547
-0.000336583
-0.000367326
-0.00034544
-0.000355853
-0.000411828
-0.000585898
-0.000896438
-0.00131483
-0.00165087
-0.00174247
-0.00160438
-0.00132253
-0.0010087
0.00120465
0.00131379
0.00137138
0.00141678
0.00143037
0.00143755
0.00140291
0.00138957
0.00132478
0.0013336
0.00127622
0.00115147
0.000878749
0.000525327
0.000264255
0.000194056
0.000321019
0.000561944
0.000825737
0.00104837
-0.000149947
-0.000110648
-0.000103907
-9.82808e-05
-0.000109683
-8.47165e-05
-8.52387e-05
-5.67866e-05
-8.85651e-05
-6.47802e-05
-0.00018219
-0.00045504
-0.000865778
-0.00126896
-0.00139997
-0.00124819
-0.000936471
-0.000624292
-0.000382182
-0.000229254
0.000763827
0.000812698
0.000836076
0.000860857
0.000849066
0.000845382
0.00080775
0.000787267
0.000718219
0.000707313
0.000546845
0.000231599
-0.000173063
-0.000362191
-0.000309296
-7.77932e-05
0.000206578
0.000433236
0.000595383
0.000698847
1.20568e-07
1.73931e-06
-9.23743e-06
-1.09196e-05
-1.23647e-05
9.55833e-06
1.13957e-05
3.13073e-05
3.47291e-06
6.60054e-06
-0.000188815
-0.000596961
-0.00100224
-0.0010853
-0.00087037
-0.000579344
-0.000314639
-0.000150298
-5.41886e-05
-1.20577e-05
0.000441784
0.00046627
0.000476991
0.000487421
0.000474555
0.000466139
0.000435692
0.000413346
0.000359971
0.000342595
0.000161463
-0.000210215
-0.000462488
-0.000448303
-0.000215647
9.78275e-06
0.000194555
0.000299955
0.000370772
0.000412401
4.42057e-05
4.21265e-05
3.32107e-05
3.50415e-05
3.42844e-05
4.93356e-05
4.9686e-05
6.59815e-05
4.88137e-05
7.34216e-05
-0.000104117
-0.000534809
-0.000716712
-0.00063418
-0.000390481
-0.000205249
-6.71649e-05
-4.14724e-06
3.27806e-05
4.34141e-05
0.000251113
0.000262829
0.000266607
0.000269728
0.000258546
0.000249773
0.000226172
0.000208563
0.000173167
0.000192112
5.50926e-05
-0.000227656
-0.000332254
-0.00022612
-4.54042e-05
6.89508e-05
0.000154686
0.000191155
0.000221344
0.00023727
5.51838e-05
5.51211e-05
5.06109e-05
5.40434e-05
5.28456e-05
6.41062e-05
6.374e-05
8.72887e-05
8.39082e-05
0.000190243
7.55294e-05
-0.000272185
-0.000356253
-0.000290578
-0.000144995
-6.3243e-05
4.75242e-06
2.88075e-05
4.87963e-05
5.33746e-05
0.000145615
0.000150773
0.000150959
0.000151243
0.000141458
0.000133665
0.000114509
0.000102335
8.1683e-05
0.000139021
9.8089e-05
-5.16011e-05
-0.000108735
-5.34756e-05
3.36619e-05
7.06289e-05
0.000108258
0.000118065
0.00013302
0.00013881
5.29431e-05
5.46449e-05
5.31541e-05
5.66991e-05
5.54882e-05
6.44668e-05
6.47547e-05
9.32813e-05
0.000105245
0.000280128
0.00026701
-5.06756e-05
-0.000137038
-0.000139593
-7.50772e-05
-3.47331e-05
1.12145e-05
2.69684e-05
4.41262e-05
4.90097e-05
8.90946e-05
9.12883e-05
9.007e-05
8.92787e-05
8.09321e-05
7.40515e-05
5.7679e-05
4.70548e-05
2.8991e-05
8.60583e-05
0.000195888
3.7034e-05
-1.94431e-05
-1.9435e-05
2.15176e-05
3.49107e-05
6.3433e-05
7.02301e-05
8.19598e-05
8.502e-05
4.63734e-05
4.85641e-05
4.84608e-05
5.12914e-05
5.01847e-05
5.61737e-05
5.59714e-05
7.2344e-05
6.84864e-05
0.000106978
6.64677e-05
-3.07842e-05
-4.01439e-05
-5.48758e-05
-2.0911e-05
-1.19237e-05
1.47641e-05
2.35032e-05
3.72672e-05
4.18242e-05
5.95308e-05
6.02746e-05
5.8769e-05
5.76732e-05
5.09475e-05
4.50731e-05
3.22749e-05
2.18586e-05
9.76686e-06
9.08583e-06
4.07721e-05
9.82351e-06
1.88831e-05
1.65359e-05
3.63566e-05
3.51482e-05
4.90999e-05
4.92143e-05
5.62248e-05
5.71336e-05
3.95788e-05
4.13999e-05
4.16833e-05
4.35325e-05
4.24287e-05
4.58615e-05
4.58086e-05
5.38683e-05
5.14595e-05
5.8148e-05
3.35672e-05
-1.54767e-05
-1.68331e-05
-3.05319e-05
-8.3714e-06
-4.56491e-06
1.45818e-05
2.06489e-05
3.16145e-05
3.53682e-05
4.37899e-05
4.38876e-05
4.25945e-05
4.15003e-05
3.63552e-05
3.16283e-05
2.21365e-05
1.32232e-05
4.41929e-06
-2.44094e-06
1.15522e-05
6.41272e-06
2.27413e-05
2.05288e-05
3.41634e-05
3.02734e-05
3.88957e-05
3.74229e-05
4.20974e-05
4.2191e-05
3.41156e-05
3.52161e-05
3.54692e-05
3.64205e-05
3.51104e-05
3.67153e-05
3.64912e-05
3.9764e-05
3.90691e-05
3.78418e-05
2.53892e-05
-5.23365e-06
-6.21119e-06
-1.71507e-05
-1.94875e-06
4.31107e-07
1.47112e-05
1.92765e-05
2.78143e-05
3.05324e-05
3.50587e-05
3.48344e-05
3.3941e-05
3.29628e-05
2.91511e-05
2.55963e-05
1.8828e-05
1.17213e-05
5.84157e-06
-9.1759e-07
6.80549e-06
6.97407e-06
2.18185e-05
1.97518e-05
2.9814e-05
2.60889e-05
3.20224e-05
3.05751e-05
3.39847e-05
3.38404e-05
3.02511e-05
3.05423e-05
3.0744e-05
3.09583e-05
2.9486e-05
2.98303e-05
2.9197e-05
2.96628e-05
3.00563e-05
2.61759e-05
2.10636e-05
7.85393e-07
1.06778e-06
-6.94674e-06
3.89976e-06
5.44647e-06
1.58437e-05
1.9233e-05
2.55998e-05
2.73404e-05
3.01452e-05
2.95166e-05
2.90758e-05
2.81528e-05
2.52072e-05
2.26116e-05
1.84051e-05
1.24982e-05
9.30965e-06
3.23396e-06
8.50081e-06
8.23141e-06
2.00063e-05
1.7609e-05
2.55602e-05
2.28931e-05
2.72429e-05
2.6442e-05
2.91199e-05
2.8808e-05
2.77318e-05
2.72039e-05
2.75179e-05
2.72561e-05
2.55538e-05
2.52099e-05
2.42453e-05
2.28773e-05
2.39361e-05
1.92588e-05
1.8222e-05
4.72376e-06
6.75198e-06
9.88577e-07
9.01385e-06
1.00744e-05
1.72677e-05
1.98408e-05
2.44566e-05
2.52693e-05
2.72894e-05
2.61685e-05
2.61917e-05
2.51837e-05
2.28036e-05
2.12045e-05
1.83575e-05
1.35191e-05
1.28515e-05
6.62564e-06
1.15803e-05
9.01713e-06
1.8405e-05
1.58795e-05
2.20718e-05
2.0679e-05
2.39748e-05
2.39789e-05
2.60739e-05
2.56178e-05
2.5985e-05
2.49958e-05
2.55808e-05
2.4711e-05
2.31227e-05
2.24061e-05
2.15313e-05
1.86812e-05
2.02993e-05
1.52309e-05
1.69625e-05
7.57611e-06
1.11363e-05
6.40869e-06
1.29317e-05
1.36523e-05
1.85853e-05
2.06935e-05
2.37112e-05
2.40439e-05
2.56839e-05
2.36308e-05
2.44608e-05
2.33666e-05
2.10897e-05
2.01357e-05
1.83245e-05
1.39518e-05
1.51969e-05
8.86438e-06
1.39795e-05
9.66657e-06
1.75647e-05
1.46402e-05
1.99055e-05
1.95003e-05
2.15945e-05
2.26057e-05
2.42758e-05
2.3471e-05
2.53557e-05
2.33713e-05
2.45178e-05
2.30603e-05
2.12416e-05
2.12587e-05
1.98683e-05
1.62323e-05
1.92493e-05
1.27251e-05
1.72014e-05
8.92829e-06
1.42933e-05
1.01878e-05
1.53457e-05
1.64806e-05
1.93804e-05
2.15399e-05
2.32049e-05
2.28761e-05
2.43521e-05
2.18361e-05
2.35254e-05
2.18104e-05
1.99117e-05
1.95136e-05
1.84012e-05
1.33828e-05
1.67228e-05
9.64568e-06
1.57956e-05
9.8428e-06
1.75822e-05
1.35187e-05
1.85173e-05
1.87825e-05
2.01212e-05
2.20002e-05
2.27489e-05
2.20916e-05
2.52451e-05
2.14797e-05
2.40901e-05
2.2489e-05
1.97617e-05
2.03844e-05
1.91917e-05
1.46766e-05
1.91729e-05
1.13489e-05
1.79592e-05
9.72238e-06
1.6563e-05
1.21724e-05
1.71569e-05
1.85352e-05
1.91109e-05
2.2318e-05
2.33066e-05
2.18282e-05
2.38636e-05
1.99613e-05
2.29886e-05
2.07934e-05
1.83053e-05
1.95059e-05
1.81948e-05
1.23474e-05
1.82122e-05
8.83916e-06
1.75624e-05
8.97772e-06
1.77303e-05
1.26208e-05
1.73302e-05
1.87797e-05
1.86712e-05
2.17801e-05
2.16475e-05
2.03563e-05
2.50873e-05
2.02214e-05
2.41763e-05
2.1514e-05
1.85513e-05
2.04123e-05
1.88146e-05
1.29429e-05
1.98371e-05
1.0001e-05
1.92114e-05
9.61912e-06
1.85481e-05
1.2753e-05
1.78815e-05
1.97558e-05
1.89106e-05
2.31172e-05
2.27024e-05
2.08899e-05
2.40701e-05
1.72664e-05
2.29557e-05
2.03816e-05
1.56971e-05
1.99662e-05
1.79253e-05
1.03438e-05
1.93952e-05
7.09945e-06
1.89716e-05
7.42166e-06
1.82877e-05
1.11237e-05
1.61217e-05
1.93841e-05
1.64081e-05
2.18536e-05
2.1009e-05
1.78042e-05
2.51524e-05
1.8345e-05
2.46809e-05
2.07503e-05
1.68886e-05
2.10925e-05
1.83926e-05
1.06962e-05
2.13677e-05
7.71666e-06
2.10964e-05
8.0488e-06
2.02279e-05
1.19523e-05
1.79753e-05
2.0622e-05
1.77089e-05
2.40058e-05
2.19798e-05
1.94756e-05
2.41559e-05
1.40259e-05
2.37933e-05
1.92359e-05
1.23532e-05
2.1139e-05
1.74368e-05
6.62707e-06
2.11064e-05
3.59334e-06
2.08143e-05
4.24044e-06
1.92909e-05
8.31636e-06
1.46161e-05
1.9685e-05
1.35648e-05
2.25457e-05
1.9487e-05
1.47186e-05
2.58199e-05
1.54944e-05
2.56573e-05
1.97797e-05
1.36878e-05
2.23959e-05
1.76894e-05
7.65759e-06
2.2951e-05
4.57748e-06
2.28184e-05
5.33227e-06
2.14776e-05
9.46308e-06
1.73864e-05
2.16346e-05
1.52215e-05
2.4963e-05
2.08098e-05
1.66252e-05
2.50891e-05
7.58391e-06
2.6396e-05
1.82531e-05
5.39013e-06
2.43558e-05
1.68444e-05
-1.24909e-06
2.46724e-05
-3.72652e-06
2.4327e-05
-2.66612e-06
2.1718e-05
1.8942e-06
1.2025e-05
2.10878e-05
7.4697e-06
2.46148e-05
1.78268e-05
8.76157e-06
2.62148e-05
1.03372e-05
2.75048e-05
1.7616e-05
8.19945e-06
2.50092e-05
1.59317e-05
1.69457e-06
2.51554e-05
-1.26659e-06
2.48619e-05
-1.9939e-07
2.26537e-05
4.18496e-06
1.55149e-05
2.18278e-05
1.01622e-05
2.62349e-05
1.79917e-05
1.17814e-05
2.82844e-05
-6.76561e-06
3.40724e-05
1.44175e-05
-1.19736e-05
3.40242e-05
1.38319e-05
-1.99328e-05
3.23813e-05
-2.06785e-05
3.13118e-05
-1.89705e-05
2.70507e-05
-1.40781e-05
6.78581e-06
2.45759e-05
-6.67105e-06
3.09009e-05
1.29158e-05
-5.60766e-06
-0.0109846
-0.0105921
-0.0102863
-0.0100749
-0.00995848
-0.00994605
-0.010067
-0.0103018
-0.0106446
-0.0110712
-0.0115593
-0.0120578
-0.0125036
-0.0128187
-0.0129521
-0.0129146
-0.012714
-0.012366
-0.0119208
-0.0114412
0.00232657
0.0022807
0.00214961
0.00198819
0.00183419
0.00174433
0.00167528
0.00159015
0.00146805
0.00131372
0.00111169
0.000888618
0.000699535
0.00060523
0.000667396
0.000935586
0.00131226
0.00170483
0.00203622
0.00225069
-0.00233594
-0.0021005
-0.00191499
-0.00177926
-0.00172987
-0.00178585
-0.00191352
-0.00206338
-0.00228137
-0.00253746
-0.00286891
-0.00321999
-0.00352274
-0.00369261
-0.00372922
-0.00365413
-0.00346582
-0.00318777
-0.0028861
-0.00259674
0.00290978
0.00297321
0.00299746
0.00301491
0.00301987
0.0030198
0.00295314
0.00287503
0.00270841
0.00251553
0.00218774
0.00181871
0.00151214
0.00138163
0.00150909
0.00176863
0.00210714
0.00241258
0.00264703
0.00281006
-0.000458466
-0.000310747
-0.000237822
-0.000190826
-0.000228317
-0.000244071
-0.000305424
-0.000352305
-0.000507756
-0.000703949
-0.00112462
-0.0016305
-0.00205848
-0.0022868
-0.00231027
-0.00212779
-0.00177037
-0.00136235
-0.000981243
-0.000674013
0.00202387
0.00212552
0.00217612
0.00222189
0.00221818
0.00220806
0.00212522
0.00205364
0.00185809
0.00163402
0.00112019
0.000583357
0.000208039
0.000148003
0.000363375
0.000721308
0.00109953
0.00142711
0.00169091
0.00188903
6.057e-05
0.000104611
0.000108743
0.000112964
9.06168e-05
0.000112633
8.22698e-05
7.50198e-05
-7.18398e-05
-0.000282378
-0.000890772
-0.00153904
-0.00194155
-0.00199552
-0.00169851
-0.00124483
-0.000786632
-0.000429734
-0.000177307
-2.10301e-05
0.00125556
0.00132571
0.00135845
0.00139246
0.00136796
0.00135408
0.00127704
0.00121109
0.00102294
0.000771146
0.00011564
-0.000489226
-0.000756097
-0.000571487
-0.000172524
0.000240177
0.000601373
0.000855394
0.00104125
0.00116852
0.000173656
0.000183509
0.000171096
0.000172216
0.000164729
0.000189
0.000169117
0.000164314
4.10558e-05
-0.000181159
-0.000863494
-0.00150338
-0.0017179
-0.00145546
-0.000968296
-0.000552213
-0.000224474
-3.11583e-05
9.06069e-05
0.000150479
0.000743206
0.000783367
0.00079967
0.000815244
0.000792453
0.000777173
0.000717276
0.000662181
0.000517982
0.000290197
-0.000337027
-0.000846748
-0.000855756
-0.000556526
-0.000132713
0.000166513
0.000398425
0.000530289
0.000630712
0.00069527
0.000178929
0.000182708
0.000172463
0.000178181
0.000172819
0.000191137
0.000176491
0.000180474
9.86675e-05
-4.70444e-05
-0.000623275
-0.0011565
-0.00109718
-0.000794261
-0.000407308
-0.000171884
6.46453e-06
8.87825e-05
0.000147254
0.000170152
0.000436375
0.000457332
0.00046337
0.00046952
0.000450375
0.00043737
0.000393502
0.000357466
0.000265763
0.00013927
-0.000326193
-0.000619661
-0.000506503
-0.000239471
3.33349e-05
0.000170601
0.000283768
0.000332697
0.000382546
0.000411295
0.000155795
0.000160441
0.000155529
0.000162857
0.000158149
0.000173604
0.000164363
0.000190779
0.000156096
0.000180855
-0.000199673
-0.000575104
-0.000488992
-0.000327895
-0.000117473
-2.51496e-05
6.68173e-05
9.9426e-05
0.000135188
0.000147552
0.000262175
0.000272825
0.000273665
0.000276024
0.000259792
0.000249685
0.000216667
0.000197965
0.000150857
0.000142253
-8.04647e-05
-0.000197987
-0.000125473
-1.02939e-05
0.000111788
0.000143356
0.000195098
0.000207753
0.000235668
0.000248258
0.000127475
0.000133253
0.000132101
0.000139159
0.000135264
0.000148749
0.000144359
0.000185312
0.000191633
0.000365536
0.000228874
-0.000146373
-0.000154551
-0.000139829
-4.82761e-05
-1.04257e-05
5.46578e-05
7.58758e-05
0.000106705
0.000117638
0.000166114
0.000171829
0.000170656
0.000171354
0.000157713
0.000149313
0.000122291
0.000109764
7.80408e-05
0.000145058
0.00025163
8.31742e-06
-2.29697e-05
-1.51073e-05
5.42241e-05
6.77259e-05
0.000114927
0.00012577
0.000149093
0.0001568
0.000102634
0.000108127
0.000108608
0.000114235
0.000110929
0.000120313
0.000116518
0.000141291
0.000130438
0.000185704
0.000108642
-6.1062e-05
-5.50069e-05
-7.63026e-05
-1.48634e-05
-4.38727e-06
4.27139e-05
5.72778e-05
8.33795e-05
9.2872e-05
0.000114275
0.000117249
0.000115585
0.000115521
0.000104529
9.73349e-05
7.62487e-05
6.3235e-05
4.1395e-05
4.32866e-05
7.52944e-05
4.56688e-06
2.90875e-05
2.15037e-05
6.15482e-05
5.81871e-05
8.66945e-05
8.85831e-05
0.000104362
0.000108056
8.37785e-05
8.79381e-05
8.87317e-05
9.25541e-05
8.95443e-05
9.50782e-05
9.2251e-05
0.00010425
9.6769e-05
0.000106178
6.34064e-05
-2.57689e-05
-1.7471e-05
-4.13677e-05
2.82315e-07
3.529e-06
3.81643e-05
4.77611e-05
6.82429e-05
7.53904e-05
8.58691e-05
8.72831e-05
8.5812e-05
8.53697e-05
7.68676e-05
7.09741e-05
5.52683e-05
4.32229e-05
2.73588e-05
1.71024e-05
3.10717e-05
8.90959e-06
3.9557e-05
3.09293e-05
5.91536e-05
5.14698e-05
7.03144e-05
6.8904e-05
7.98733e-05
8.14551e-05
7.06091e-05
7.30966e-05
7.37138e-05
7.58876e-05
7.2807e-05
7.55165e-05
7.30631e-05
7.74952e-05
7.37315e-05
7.00392e-05
4.88318e-05
-5.59428e-06
5.00051e-07
-1.95328e-05
9.7792e-06
1.08875e-05
3.66621e-05
4.32994e-05
5.89426e-05
6.37621e-05
6.97985e-05
7.01731e-05
6.92018e-05
6.85553e-05
6.21148e-05
5.76232e-05
4.63599e-05
3.61342e-05
2.57561e-05
1.41771e-05
2.27185e-05
1.40079e-05
4.07034e-05
3.28595e-05
5.37806e-05
4.64063e-05
5.97295e-05
5.78472e-05
6.58546e-05
6.64154e-05
6.19864e-05
6.2766e-05
6.32878e-05
6.40842e-05
6.09263e-05
6.17048e-05
5.92092e-05
5.91737e-05
5.81626e-05
5.01554e-05
4.18001e-05
6.1802e-06
1.24189e-05
-2.86097e-06
1.84718e-05
1.86678e-05
3.74311e-05
4.20982e-05
5.36386e-05
5.64903e-05
6.06612e-05
5.99104e-05
5.96067e-05
5.86931e-05
5.35778e-05
5.03011e-05
4.31102e-05
3.41071e-05
2.87431e-05
1.76139e-05
2.47543e-05
1.81906e-05
3.95086e-05
3.20065e-05
4.83951e-05
4.28894e-05
5.2626e-05
5.15236e-05
5.75864e-05
5.74104e-05
5.66443e-05
5.57313e-05
5.65147e-05
5.63145e-05
5.29253e-05
5.27034e-05
5.01648e-05
4.71811e-05
4.82441e-05
3.88345e-05
3.79212e-05
1.37754e-05
2.15591e-05
1.00078e-05
2.60534e-05
2.59899e-05
3.90302e-05
4.25626e-05
5.0833e-05
5.19586e-05
5.53953e-05
5.34002e-05
5.3915e-05
5.25303e-05
4.8258e-05
4.63665e-05
4.14266e-05
3.35268e-05
3.28032e-05
2.11315e-05
2.93011e-05
2.07483e-05
3.82445e-05
3.11393e-05
4.40321e-05
4.07862e-05
4.79285e-05
4.80661e-05
5.25502e-05
5.17938e-05
5.3237e-05
5.10883e-05
5.25273e-05
5.11279e-05
4.7919e-05
4.72878e-05
4.51519e-05
3.97392e-05
4.27077e-05
3.23509e-05
3.67201e-05
1.90314e-05
2.86271e-05
1.88223e-05
3.18782e-05
3.18142e-05
4.06509e-05
4.37816e-05
4.91329e-05
4.92529e-05
5.25185e-05
4.85801e-05
5.05956e-05
4.86862e-05
4.45261e-05
4.37246e-05
4.04046e-05
3.27209e-05
3.58172e-05
2.3429e-05
3.31908e-05
2.24624e-05
3.79298e-05
3.04842e-05
4.1449e-05
4.00859e-05
4.45493e-05
4.6422e-05
4.96128e-05
4.80484e-05
5.19135e-05
4.76625e-05
5.04068e-05
4.77691e-05
4.41596e-05
4.48598e-05
4.2135e-05
3.51549e-05
4.13186e-05
2.82042e-05
3.78199e-05
2.15431e-05
3.38676e-05
2.48301e-05
3.55045e-05
3.6516e-05
4.1541e-05
4.52241e-05
4.80331e-05
4.69326e-05
5.04409e-05
4.50098e-05
4.89007e-05
4.56699e-05
4.18355e-05
4.22636e-05
3.9923e-05
3.07591e-05
3.8126e-05
2.3711e-05
3.64497e-05
2.2952e-05
3.8764e-05
2.95095e-05
3.98416e-05
3.99326e-05
4.23096e-05
4.59927e-05
4.72229e-05
4.55035e-05
5.16524e-05
4.39662e-05
4.96176e-05
4.6259e-05
4.10975e-05
4.33082e-05
4.07707e-05
3.18814e-05
4.165e-05
2.54766e-05
3.97853e-05
2.26549e-05
3.78039e-05
2.78213e-05
3.81493e-05
4.00521e-05
4.07893e-05
4.67093e-05
4.78745e-05
4.48013e-05
4.98035e-05
4.13078e-05
4.8142e-05
4.36383e-05
3.85558e-05
4.21163e-05
3.92365e-05
2.80944e-05
4.07085e-05
2.15402e-05
3.98021e-05
2.14091e-05
3.97705e-05
2.82904e-05
3.83162e-05
4.06572e-05
3.98421e-05
4.61807e-05
4.54136e-05
4.23619e-05
5.15845e-05
4.10025e-05
4.989e-05
4.43406e-05
3.82399e-05
4.34689e-05
3.98907e-05
2.81277e-05
4.33028e-05
2.23736e-05
4.2576e-05
2.18409e-05
4.13459e-05
2.82658e-05
3.9064e-05
4.23796e-05
3.98019e-05
4.83183e-05
4.66786e-05
4.25938e-05
5.03231e-05
3.62004e-05
4.84417e-05
4.24887e-05
3.35944e-05
4.31077e-05
3.84702e-05
2.3712e-05
4.32034e-05
1.75601e-05
4.2864e-05
1.81867e-05
4.13926e-05
2.55368e-05
3.64893e-05
4.21213e-05
3.58003e-05
4.68749e-05
4.40717e-05
3.7758e-05
5.19997e-05
3.67547e-05
5.11402e-05
4.2665e-05
3.42829e-05
4.5033e-05
3.88714e-05
2.30861e-05
4.64904e-05
1.72745e-05
4.64516e-05
1.81395e-05
4.45528e-05
2.59864e-05
3.88413e-05
4.41562e-05
3.68692e-05
5.0215e-05
4.50771e-05
3.92744e-05
5.0855e-05
2.97473e-05
5.03971e-05
4.01931e-05
2.69534e-05
4.5666e-05
3.72684e-05
1.62212e-05
4.68431e-05
1.03042e-05
4.68124e-05
1.17535e-05
4.37478e-05
1.99921e-05
3.39288e-05
4.31211e-05
3.02311e-05
4.86218e-05
4.11737e-05
3.18107e-05
5.3463e-05
3.03191e-05
5.36168e-05
4.04724e-05
2.72387e-05
4.81945e-05
3.72437e-05
1.58852e-05
5.0253e-05
9.89414e-06
5.04653e-05
1.16651e-05
4.73838e-05
2.0169e-05
3.73149e-05
4.61812e-05
3.12089e-05
5.25305e-05
4.24389e-05
3.31442e-05
5.28014e-05
1.78474e-05
5.55104e-05
3.77846e-05
1.41222e-05
5.19995e-05
3.56016e-05
1.71173e-06
5.3668e-05
-3.46868e-06
5.35308e-05
-1.14735e-06
4.83574e-05
8.06643e-06
2.94458e-05
4.57284e-05
1.9037e-05
5.27089e-05
3.75475e-05
2.0904e-05
5.48601e-05
1.94995e-05
5.81951e-05
3.62193e-05
1.55907e-05
5.4355e-05
3.37665e-05
3.10099e-06
5.56333e-05
-2.68115e-06
5.55033e-05
-1.9896e-07
5.05489e-05
8.93342e-06
3.35694e-05
4.72915e-05
2.07053e-05
5.58985e-05
3.69252e-05
2.3078e-05
5.81357e-05
-5.05875e-06
6.85114e-05
3.11214e-05
-1.3266e-05
6.84271e-05
3.03258e-05
-2.791e-05
6.69463e-05
-3.07314e-05
6.56327e-05
-2.72731e-05
5.7433e-05
-1.74176e-05
2.13833e-05
5.15637e-05
-3.39467e-06
6.32281e-05
2.89521e-05
-1.64368e-06
-0.0135268
-0.0129777
-0.0125284
-0.0122008
-0.0120088
-0.0119825
-0.0121377
-0.012453
-0.0129176
-0.0134956
-0.0141507
-0.0148146
-0.0154059
-0.0158303
-0.0160238
-0.0159942
-0.0157533
-0.0153223
-0.0147598
-0.0141386
0.00193509
0.00199199
0.00192576
0.00179135
0.00163407
0.00151892
0.00138277
0.00120794
0.000973184
0.000688277
0.000342155
-2.48171e-05
-0.000336633
-0.000510186
-0.000465152
-0.000152042
0.000326144
0.000860212
0.00135152
0.00172318
-0.00274567
-0.00243779
-0.0022214
-0.00208632
-0.00207222
-0.00217967
-0.00237649
-0.00261631
-0.00295091
-0.00334834
-0.00384803
-0.00437023
-0.00481235
-0.00505075
-0.00507867
-0.00489673
-0.00453475
-0.00405776
-0.00356734
-0.00312133
0.0033813
0.00345882
0.00347743
0.0034802
0.00345761
0.00341357
0.00328791
0.00313247
0.0028542
0.00251803
0.00200338
0.00145039
0.00102327
0.000887149
0.0011367
0.00158269
0.00213054
0.00262015
0.00299089
0.00323926
-0.000285094
-0.000126023
-5.4918e-05
-1.85814e-05
-7.94031e-05
-0.0001205
-0.000230275
-0.000343794
-0.000610685
-0.000961395
-0.00160161
-0.002315
-0.00284432
-0.00304759
-0.00291543
-0.00251684
-0.00195111
-0.00138194
-0.000895925
-0.000529259
0.00247726
0.00259651
0.0026526
0.00269928
0.00267641
0.00264298
0.00251158
0.00237461
0.00206372
0.00167579
0.000918257
0.000183425
-0.000249255
-0.00019426
0.000213107
0.000770446
0.00130752
0.00174275
0.00207499
0.00231605
0.000290706
0.000348528
0.000355572
0.000357913
0.000326082
0.000334303
0.000266347
0.000205514
-5.06984e-05
-0.000428776
-0.00130526
-0.0021482
-0.00257464
-0.002481
-0.00197844
-0.001343
-0.00075235
-0.000311166
-4.02398e-06
0.000187596
0.00158434
0.00167297
0.00171284
0.00174941
0.00171242
0.0016825
0.00156647
0.00144639
0.00115042
0.000728653
-0.000200069
-0.000970455
-0.00119977
-0.000857252
-0.000266249
0.000288551
0.000752025
0.00107315
0.00130867
0.00147198
0.000370496
0.000391946
0.000381737
0.000385244
0.000369737
0.000385464
0.000336266
0.000289261
7.1394e-05
-0.000312679
-0.00126906
-0.00205785
-0.00219891
-0.00176732
-0.00110723
-0.000574877
-0.000163519
8.27629e-05
0.000243994
0.000330396
0.000967077
0.0010199
0.00104016
0.00105713
0.00102515
0.000999256
0.000910379
0.000815215
0.000585453
0.000209075
-0.000674444
-0.00129068
-0.00120032
-0.000747178
-0.000182851
0.000203714
0.000502399
0.000677088
0.000812602
0.000901745
0.000329351
0.000341196
0.000332147
0.000340296
0.000328663
0.000341963
0.000306499
0.000283413
0.000133217
-0.000135317
-0.000946101
-0.00156664
-0.00139538
-0.00096254
-0.000461057
-0.000160887
7.01585e-05
0.000183901
0.000269107
0.000309081
0.000586441
0.000615214
0.000622907
0.000630183
0.000603925
0.000584448
0.000520901
0.000460832
0.00031327
8.69124e-05
-0.000575946
-0.000910124
-0.00069461
-0.000325115
3.16923e-05
0.000211561
0.000364123
0.000435614
0.000507537
0.000550629
0.000266089
0.000276428
0.000272301
0.000281781
0.000272315
0.000285838
0.0002636
0.000279596
0.000206594
0.000171403
-0.000373909
-0.000792368
-0.000621371
-0.000393008
-0.000119401
5.11114e-07
0.000123993
0.000173053
0.000226769
0.000249792
0.000364205
0.000379828
0.000381255
0.000384658
0.000362879
0.000349214
0.000303356
0.000274149
0.000198465
0.000146804
-0.00018985
-0.000322314
-0.000185539
-2.68726e-05
0.000136429
0.000181828
0.000256456
0.000279805
0.000322259
0.000343271
0.000207932
0.000217931
0.000217394
0.000226323
0.000218802
0.000232242
0.00022027
0.000262002
0.000254029
0.000423612
0.000205042
-0.000227902
-0.000194038
-0.000162105
-3.66986e-05
1.10921e-05
9.82829e-05
0.000129216
0.000173692
0.000191925
0.000238118
0.000247213
0.000246208
0.000247803
0.000229704
0.000219223
0.000183061
0.000166651
0.000120635
0.000188014
0.000272714
-3.08681e-05
-4.12461e-05
-2.5161e-05
7.11086e-05
9.17142e-05
0.000157775
0.000175648
0.00021034
0.00022367
0.000162687
0.000171276
0.000172193
0.000179277
0.000173037
0.000182675
0.000173548
0.000199881
0.000179825
0.00023915
0.000132111
-8.80806e-05
-6.91087e-05
-9.18614e-05
-6.25011e-06
9.31256e-06
7.46866e-05
9.6159e-05
0.000133308
0.000148065
0.000167952
0.000173218
0.000171543
0.000172147
0.000157529
0.000148818
0.00012081
0.000104869
7.37075e-05
7.40876e-05
9.73903e-05
-5.6405e-06
3.06996e-05
2.03694e-05
7.89341e-05
7.73973e-05
0.000120041
0.000126011
0.000150471
0.000157888
0.000130603
0.000136867
0.000137891
0.000142694
0.000137192
0.000142727
0.000135868
0.000147986
0.000134445
0.000142441
8.56125e-05
-3.37905e-05
-1.73103e-05
-4.70667e-05
1.15418e-05
1.66295e-05
6.49886e-05
7.88739e-05
0.000107788
0.000118498
0.000128412
0.000131272
0.00012971
0.000129668
0.000118214
0.000111079
9.01468e-05
7.51916e-05
5.28802e-05
3.85435e-05
4.83389e-05
9.57913e-06
5.0179e-05
3.66859e-05
7.82133e-05
6.99093e-05
9.90254e-05
9.97397e-05
0.000117165
0.000121103
0.000109114
0.000112836
0.000113533
0.000116232
0.000110944
0.00011337
0.000107738
0.000111145
0.000103497
9.60368e-05
6.81738e-05
-4.55235e-06
8.11678e-06
-1.77983e-05
2.39262e-05
2.53062e-05
6.12315e-05
7.04579e-05
9.23779e-05
9.94443e-05
0.000105575
0.000106677
0.000105623
0.000105106
9.62301e-05
9.07182e-05
7.5576e-05
6.25213e-05
4.80525e-05
3.17168e-05
3.88002e-05
2.03319e-05
5.54158e-05
4.28174e-05
7.36638e-05
6.49905e-05
8.58875e-05
8.51815e-05
9.79925e-05
9.99589e-05
9.53903e-05
9.66192e-05
9.71932e-05
9.81083e-05
9.29435e-05
9.3265e-05
8.82215e-05
8.64446e-05
8.32444e-05
7.08249e-05
6.00084e-05
1.25776e-05
2.4646e-05
4.37738e-06
3.50754e-05
3.49461e-05
6.11319e-05
6.74346e-05
8.35665e-05
8.76856e-05
9.23911e-05
9.16682e-05
9.14034e-05
9.03337e-05
8.31131e-05
7.90384e-05
6.9067e-05
5.72783e-05
4.983e-05
3.39171e-05
4.14921e-05
2.79695e-05
5.63789e-05
4.46257e-05
6.87402e-05
6.20587e-05
7.73892e-05
7.71338e-05
8.67479e-05
8.72615e-05
8.70103e-05
8.57909e-05
8.67739e-05
8.63246e-05
8.10399e-05
8.03677e-05
7.57762e-05
7.0544e-05
7.08789e-05
5.68502e-05
5.61615e-05
2.36796e-05
3.70473e-05
2.13089e-05
4.46358e-05
4.41693e-05
6.2498e-05
6.72492e-05
7.87956e-05
8.04331e-05
8.476e-05
8.20733e-05
8.29075e-05
8.103e-05
7.48402e-05
7.24604e-05
6.54499e-05
5.47209e-05
5.36957e-05
3.7083e-05
4.7307e-05
3.27327e-05
5.6595e-05
4.56621e-05
6.47829e-05
6.08004e-05
7.19739e-05
7.30049e-05
8.00088e-05
7.93778e-05
8.18447e-05
7.86367e-05
8.06487e-05
7.85766e-05
7.3541e-05
7.26546e-05
6.88634e-05
6.07033e-05
6.43615e-05
4.9022e-05
5.57113e-05
3.12665e-05
4.65703e-05
3.29318e-05
5.19437e-05
5.16708e-05
6.41046e-05
6.8456e-05
7.59741e-05
7.60422e-05
8.05933e-05
7.50784e-05
7.7976e-05
7.51749e-05
6.9095e-05
6.82351e-05
6.32866e-05
5.24902e-05
5.69749e-05
3.91415e-05
5.25515e-05
3.58228e-05
5.75807e-05
4.63609e-05
6.26505e-05
6.1087e-05
6.81574e-05
7.13e-05
7.61026e-05
7.4142e-05
7.9657e-05
7.33745e-05
7.73842e-05
7.35725e-05
6.80139e-05
6.9032e-05
6.47859e-05
5.44833e-05
6.30289e-05
4.39846e-05
5.79974e-05
3.50526e-05
5.37171e-05
4.07453e-05
5.65526e-05
5.78134e-05
6.49067e-05
7.0222e-05
7.41953e-05
7.24957e-05
7.7835e-05
6.97896e-05
7.5479e-05
7.07988e-05
6.48783e-05
6.59506e-05
6.2158e-05
4.91919e-05
5.98693e-05
3.88761e-05
5.71883e-05
3.69052e-05
5.96719e-05
4.61375e-05
6.1401e-05
6.18805e-05
6.54997e-05
7.11562e-05
7.30475e-05
7.04542e-05
7.90725e-05
6.79942e-05
7.61286e-05
7.10454e-05
6.34658e-05
6.69291e-05
6.28571e-05
4.97756e-05
6.39675e-05
4.03216e-05
6.13361e-05
3.65627e-05
5.91974e-05
4.45535e-05
5.98054e-05
6.25434e-05
6.37147e-05
7.22074e-05
7.3613e-05
6.92519e-05
7.69976e-05
6.43952e-05
7.44718e-05
6.78101e-05
6.00546e-05
6.56142e-05
6.10187e-05
4.50201e-05
6.33656e-05
3.55644e-05
6.20134e-05
3.50589e-05
6.18326e-05
4.49959e-05
5.99584e-05
6.35034e-05
6.2312e-05
7.18038e-05
7.06646e-05
6.60446e-05
7.89927e-05
6.33229e-05
7.64623e-05
6.82621e-05
5.90006e-05
6.71965e-05
6.15611e-05
4.42648e-05
6.66298e-05
3.57671e-05
6.56608e-05
3.51641e-05
6.41186e-05
4.48366e-05
6.08229e-05
6.58307e-05
6.19059e-05
7.44475e-05
7.18485e-05
6.57255e-05
7.76523e-05
5.7212e-05
7.50268e-05
6.58881e-05
5.30986e-05
6.70187e-05
5.98191e-05
3.85405e-05
6.70503e-05
2.9674e-05
6.66418e-05
3.0555e-05
6.46138e-05
4.13693e-05
5.78186e-05
6.58013e-05
5.69119e-05
7.31021e-05
6.8648e-05
5.9707e-05
7.96308e-05
5.68424e-05
7.82861e-05
6.57401e-05
5.28651e-05
6.95035e-05
6.00479e-05
3.67284e-05
7.12617e-05
2.82725e-05
7.13024e-05
2.96606e-05
6.86336e-05
4.12284e-05
6.02206e-05
6.84081e-05
5.73733e-05
7.71471e-05
6.94165e-05
6.05341e-05
7.84859e-05
4.8015e-05
7.78568e-05
6.26188e-05
4.36672e-05
7.07045e-05
5.80291e-05
2.79003e-05
7.23258e-05
1.93425e-05
7.24287e-05
2.15322e-05
6.82016e-05
3.36616e-05
5.44538e-05
6.74865e-05
4.91141e-05
7.57236e-05
6.46065e-05
5.1316e-05
8.15898e-05
4.72541e-05
8.19778e-05
6.24758e-05
4.24893e-05
7.42116e-05
5.76732e-05
2.58552e-05
7.68959e-05
1.72631e-05
7.73148e-05
1.99872e-05
7.28034e-05
3.25792e-05
5.77497e-05
7.12354e-05
4.89855e-05
8.0552e-05
6.54674e-05
5.15223e-05
8.10239e-05
3.20655e-05
8.47354e-05
5.90055e-05
2.65014e-05
7.9296e-05
5.55024e-05
8.52482e-06
8.15151e-05
8.53338e-07
8.15178e-05
4.30497e-06
7.43612e-05
1.77638e-05
4.84954e-05
7.09323e-05
3.42242e-05
8.12028e-05
5.93366e-05
3.67018e-05
8.36209e-05
3.21586e-05
8.8586e-05
5.67011e-05
2.61637e-05
8.30264e-05
5.30186e-05
7.88759e-06
8.47064e-05
-3.50303e-07
8.46892e-05
3.40921e-06
7.74714e-05
1.69022e-05
5.24236e-05
7.30999e-05
3.4439e-05
8.54481e-05
5.79326e-05
3.74635e-05
8.72225e-05
4.29412e-06
0.000100641
5.06095e-05
-6.5009e-06
9.95017e-05
4.89314e-05
-2.72307e-05
9.79273e-05
-3.2195e-05
9.65337e-05
-2.73076e-05
8.53683e-05
-1.30477e-05
3.84715e-05
7.79179e-05
7.13753e-06
9.38502e-05
4.83559e-05
9.54747e-06
-0.0149463
-0.0143212
-0.0138074
-0.013432
-0.0132182
-0.013202
-0.0133911
-0.0137633
-0.0143047
-0.0149723
-0.0157217
-0.0164734
-0.0171355
-0.0176039
-0.0178105
-0.0177636
-0.0174782
-0.0169826
-0.0163432
-0.0156398
0.00141661
0.00152547
0.00149621
0.00138282
0.0012357
0.00111216
0.000935808
0.000703636
0.00039352
2.1432e-05
-0.000418161
-0.000873003
-0.00125247
-0.00146119
-0.00140848
-0.00105249
-0.000506532
0.00011032
0.000687138
0.00113797
-0.00310371
-0.00274747
-0.00250788
-0.00236935
-0.00237966
-0.00252072
-0.00276533
-0.00307004