/*--------------------------------*- C++ -*----------------------------------*\
| =========                 |                                                 |
| \\      /  F ield         | OpenFOAM: The Open Source CFD Toolbox           |
|  \\    /   O peration     | Version:  2.4.0                                 |
|   \\  /    A nd           | Web:      www.OpenFOAM.org                      |
|    \\/     M anipulation  |                                                 |
\*---------------------------------------------------------------------------*/
FoamFile
{
    version     2.0;
    format      ascii;
    class       volScalarField;
    location    "850";
    object      p;
}
// * * * * * * * * * * * * * * * * * * * * * * * * * * * * * * * * * * * * * //

dimensions      [0 2 -2 0 0 0 0];

internalField   nonuniform List<scalar> 
283312
(
-0.0062698
-0.00632803
-0.00656757
-0.00690845
-0.00726268
-0.0075611
-0.00779554
-0.00796047
-0.00808802
-0.00820148
-0.00832088
-0.00843275
-0.00850504
-0.00848202
-0.00833057
-0.00805785
-0.00767463
-0.00721795
-0.00676918
-0.00642669
0.00215305
0.00164906
0.00122071
0.000949313
0.000848019
0.000911851
0.00105347
0.00119346
0.00130361
0.00139133
0.00145891
0.00153808
0.00166687
0.00186793
0.00215451
0.0025256
0.0028428
0.00299606
0.00292138
0.00261718
-0.00230084
-0.00215176
-0.00193005
-0.00169109
-0.00149981
-0.00140383
-0.00138657
-0.00139424
-0.00144487
-0.00148831
-0.00152027
-0.00149986
-0.00142785
-0.00132603
-0.00127674
-0.00137921
-0.00161513
-0.00190579
-0.00216622
-0.00230979
0.00148386
0.0016553
0.00179834
0.00191274
0.00199556
0.00206396
0.0020705
0.0020764
0.0020425
0.00205234
0.00206871
0.00211617
0.00214706
0.00210896
0.00198652
0.00174996
0.00150256
0.00131968
0.00126417
0.00133653
-0.00074408
-0.000546446
-0.000430242
-0.000352515
-0.000349744
-0.000337615
-0.000349765
-0.000336811
-0.000367569
-0.000345712
-0.000356156
-0.00041203
-0.000585786
-0.000895918
-0.0013141
-0.00165024
-0.00174219
-0.00160444
-0.00132281
-0.00100903
0.0012049
0.00131408
0.00137169
0.0014171
0.0014307
0.00143789
0.00140325
0.00138992
0.00132513
0.00133393
0.00127649
0.00115179
0.000879317
0.000526151
0.000265093
0.000194651
0.000321347
0.000562122
0.000825891
0.00104856
-0.000150011
-0.000110701
-0.000103957
-9.83361e-05
-0.000109738
-8.47675e-05
-8.52819e-05
-5.68181e-05
-8.85972e-05
-6.48366e-05
-0.000182349
-0.000455259
-0.000865873
-0.00126904
-0.00140014
-0.00124847
-0.000936778
-0.000624542
-0.000382348
-0.000229355
0.000764045
0.000812925
0.00083631
0.000861093
0.0008493
0.000845617
0.000807985
0.000787508
0.000718449
0.000707509
0.000546893
0.000231523
-0.000173219
-0.000362323
-0.000309443
-7.78945e-05
0.000206562
0.000433313
0.000595534
0.000699041
1.35279e-07
1.74438e-06
-9.24026e-06
-1.09299e-05
-1.23732e-05
9.55772e-06
1.14047e-05
3.13319e-05
3.498e-06
6.60554e-06
-0.000188951
-0.000597245
-0.00100268
-0.00108577
-0.000870736
-0.000579578
-0.000314752
-0.000150332
-5.41814e-05
-1.20395e-05
0.000441919
0.000466409
0.000477133
0.000487563
0.000474696
0.00046628
0.000435831
0.000413488
0.000360102
0.000342701
0.00016146
-0.000210371
-0.000462741
-0.000448545
-0.000215786
9.74534e-06
0.000194599
0.000300047
0.00037089
0.00041253
4.42297e-05
4.21418e-05
3.32198e-05
3.50461e-05
3.4291e-05
4.9348e-05
4.97058e-05
6.60121e-05
4.88463e-05
7.34422e-05
-0.000104186
-0.000535006
-0.000716975
-0.000634404
-0.000390606
-0.000205294
-6.71575e-05
-4.11746e-06
3.28166e-05
4.34455e-05
0.000251188
0.000262906
0.000266686
0.000269808
0.000258625
0.000249853
0.000226249
0.000208644
0.000173239
0.000192178
5.5096e-05
-0.000227751
-0.000332369
-0.000226205
-4.5428e-05
6.89695e-05
0.000154734
0.000191216
0.000221413
0.000237343
5.52038e-05
5.51358e-05
5.06222e-05
5.40523e-05
5.28562e-05
6.41199e-05
6.37584e-05
8.73134e-05
8.39365e-05
0.000190271
7.55045e-05
-0.000272265
-0.000356343
-0.000290638
-0.000145011
-6.32333e-05
4.77768e-06
2.88368e-05
4.88253e-05
5.33992e-05
0.000145655
0.000150815
0.000151002
0.000151286
0.000141501
0.000133708
0.00011455
0.000102379
8.172e-05
0.000139066
9.81031e-05
-5.16317e-05
-0.000108763
-5.34812e-05
3.36751e-05
7.06533e-05
0.00010829
0.0001181
0.000133058
0.000138849
5.29582e-05
5.4657e-05
5.31646e-05
5.67082e-05
5.54983e-05
6.44781e-05
6.47684e-05
9.32982e-05
0.000105265
0.000280157
0.000267026
-5.06553e-05
-0.000137032
-0.000139589
-7.50602e-05
-3.47134e-05
1.12368e-05
2.69899e-05
4.41466e-05
4.90271e-05
8.91169e-05
9.13109e-05
9.00934e-05
8.93019e-05
8.09551e-05
7.40747e-05
5.76995e-05
4.70773e-05
2.90059e-05
8.60764e-05
0.000195902
3.70554e-05
-1.94078e-05
-1.94037e-05
2.15376e-05
3.49308e-05
6.34531e-05
7.02501e-05
8.19808e-05
8.50413e-05
4.63846e-05
4.85735e-05
4.84694e-05
5.1299e-05
5.01929e-05
5.6182e-05
5.59809e-05
7.23544e-05
6.84969e-05
0.000106985
6.64695e-05
-3.07768e-05
-4.0142e-05
-5.48684e-05
-2.08969e-05
-1.19108e-05
1.47786e-05
2.35174e-05
3.7281e-05
4.18364e-05
5.95435e-05
6.02871e-05
5.8782e-05
5.76858e-05
5.096e-05
4.50854e-05
3.22853e-05
2.18698e-05
9.77338e-06
9.09361e-06
4.07785e-05
9.83189e-06
1.88967e-05
1.65502e-05
3.63684e-05
3.51594e-05
4.91115e-05
4.92258e-05
5.6237e-05
5.71457e-05
3.95868e-05
4.14068e-05
4.16899e-05
4.35383e-05
4.24348e-05
4.58673e-05
4.5815e-05
5.3875e-05
5.14657e-05
5.81537e-05
3.3568e-05
-1.54748e-05
-1.68326e-05
-3.05278e-05
-8.36402e-06
-4.55646e-06
1.45916e-05
2.06584e-05
3.1624e-05
3.53766e-05
4.37976e-05
4.38949e-05
4.2602e-05
4.15074e-05
3.63622e-05
3.16348e-05
2.2142e-05
1.32284e-05
4.42239e-06
-2.43798e-06
1.15558e-05
6.41744e-06
2.27488e-05
2.05364e-05
3.41708e-05
3.02801e-05
3.89029e-05
3.743e-05
4.21049e-05
4.21983e-05
3.41214e-05
3.5221e-05
3.5474e-05
3.64245e-05
3.51146e-05
3.6719e-05
3.64952e-05
3.9768e-05
3.90729e-05
3.78458e-05
2.53903e-05
-5.23296e-06
-6.2105e-06
-1.7148e-05
-1.9439e-06
4.36793e-07
1.47179e-05
1.92831e-05
2.7821e-05
3.05384e-05
3.50637e-05
3.48389e-05
3.39456e-05
3.29669e-05
2.91552e-05
2.55997e-05
1.88311e-05
1.17237e-05
5.84313e-06
-9.16773e-07
6.80748e-06
6.97689e-06
2.18231e-05
1.97563e-05
2.98187e-05
2.60932e-05
3.20273e-05
3.05797e-05
3.39898e-05
3.38452e-05
3.02552e-05
3.05458e-05
3.07473e-05
3.09611e-05
2.94888e-05
2.98325e-05
2.91994e-05
2.96649e-05
3.00585e-05
2.61781e-05
2.10646e-05
7.85585e-07
1.06864e-06
-6.94487e-06
3.90327e-06
5.45041e-06
1.58486e-05
1.92376e-05
2.56046e-05
2.73446e-05
3.01486e-05
2.95196e-05
2.90788e-05
2.81553e-05
2.52096e-05
2.26133e-05
1.84068e-05
1.24991e-05
9.31052e-06
3.23396e-06
8.50193e-06
8.23291e-06
2.00092e-05
1.76118e-05
2.55635e-05
2.28961e-05
2.72465e-05
2.64454e-05
2.91236e-05
2.88114e-05
2.77348e-05
2.72064e-05
2.75202e-05
2.72579e-05
2.55556e-05
2.5211e-05
2.42466e-05
2.2878e-05
2.39372e-05
1.92596e-05
1.82227e-05
4.72369e-06
6.75289e-06
9.89899e-07
9.01651e-06
1.00772e-05
1.72713e-05
1.98441e-05
2.44601e-05
2.52725e-05
2.72919e-05
2.61706e-05
2.61937e-05
2.51852e-05
2.28051e-05
2.12053e-05
1.83585e-05
1.35192e-05
1.2852e-05
6.62525e-06
1.15809e-05
9.01773e-06
1.84068e-05
1.58812e-05
2.20742e-05
2.06811e-05
2.39775e-05
2.39814e-05
2.60767e-05
2.56204e-05
2.59872e-05
2.49976e-05
2.55824e-05
2.47122e-05
2.31238e-05
2.24065e-05
2.1532e-05
1.86811e-05
2.02998e-05
1.52308e-05
1.6963e-05
7.57585e-06
1.11372e-05
6.40962e-06
1.29338e-05
1.36543e-05
1.85881e-05
2.0696e-05
2.37139e-05
2.40463e-05
2.56858e-05
2.36324e-05
2.44621e-05
2.33676e-05
2.10906e-05
2.01359e-05
1.8325e-05
1.39513e-05
1.51971e-05
8.86368e-06
1.39799e-05
9.66659e-06
1.75659e-05
1.46412e-05
1.99073e-05
1.95019e-05
2.15967e-05
2.26077e-05
2.42781e-05
2.3473e-05
2.53574e-05
2.33728e-05
2.4519e-05
2.3061e-05
2.12422e-05
2.12586e-05
1.98686e-05
1.62315e-05
1.92494e-05
1.27243e-05
1.72017e-05
8.92784e-06
1.42941e-05
1.01884e-05
1.53474e-05
1.6482e-05
1.93826e-05
2.15418e-05
2.32071e-05
2.28781e-05
2.43535e-05
2.18374e-05
2.35264e-05
2.1811e-05
1.99122e-05
1.95135e-05
1.84015e-05
1.33819e-05
1.6723e-05
9.64473e-06
1.57959e-05
9.84246e-06
1.75831e-05
1.35193e-05
1.85188e-05
1.87836e-05
2.01231e-05
2.20018e-05
2.27507e-05
2.20933e-05
2.52464e-05
2.14809e-05
2.4091e-05
2.24895e-05
1.97619e-05
2.03841e-05
1.91917e-05
1.46755e-05
1.91729e-05
1.13477e-05
1.79594e-05
9.72175e-06
1.65637e-05
1.21728e-05
1.71583e-05
1.85363e-05
1.91128e-05
2.23195e-05
2.33084e-05
2.18299e-05
2.38647e-05
1.99624e-05
2.29893e-05
2.07939e-05
1.83055e-05
1.95057e-05
1.8195e-05
1.23463e-05
1.82124e-05
8.83797e-06
1.75627e-05
8.97714e-06
1.7731e-05
1.26211e-05
1.73314e-05
1.87804e-05
1.86729e-05
2.17813e-05
2.1649e-05
2.03578e-05
2.50884e-05
2.02225e-05
2.41769e-05
2.15144e-05
1.85513e-05
2.04118e-05
1.88145e-05
1.29415e-05
1.98371e-05
9.99956e-06
1.92116e-05
9.61831e-06
1.85487e-05
1.27532e-05
1.78827e-05
1.97565e-05
1.89124e-05
2.31184e-05
2.27039e-05
2.08915e-05
2.40709e-05
1.72674e-05
2.29562e-05
2.0382e-05
1.5697e-05
1.99659e-05
1.79254e-05
1.03424e-05
1.93956e-05
7.09801e-06
1.8972e-05
7.42089e-06
1.82883e-05
1.11238e-05
1.61227e-05
1.93846e-05
1.64097e-05
2.18544e-05
2.10102e-05
1.78056e-05
2.51532e-05
1.83461e-05
2.46813e-05
2.07506e-05
1.68885e-05
2.10921e-05
1.83925e-05
1.06945e-05
2.13678e-05
7.71493e-06
2.10966e-05
8.04782e-06
2.02284e-05
1.19523e-05
1.79763e-05
2.06225e-05
1.77106e-05
2.40068e-05
2.19812e-05
1.94772e-05
2.41563e-05
1.40268e-05
2.37935e-05
1.92363e-05
1.23529e-05
2.11389e-05
1.74371e-05
6.62527e-06
2.11072e-05
3.59158e-06
2.0815e-05
4.23947e-06
1.92916e-05
8.31637e-06
1.46171e-05
1.9685e-05
1.35663e-05
2.2546e-05
1.94878e-05
1.472e-05
2.58204e-05
1.54955e-05
2.56575e-05
1.978e-05
1.36874e-05
2.23955e-05
1.76893e-05
7.65558e-06
2.29515e-05
4.57545e-06
2.2819e-05
5.33111e-06
2.14782e-05
9.46303e-06
1.73874e-05
2.16348e-05
1.52232e-05
2.49635e-05
2.0811e-05
1.66269e-05
2.5089e-05
7.58495e-06
2.6396e-05
1.82535e-05
5.38943e-06
2.4356e-05
1.68448e-05
-1.25161e-06
2.46738e-05
-3.72885e-06
2.43282e-05
-2.6674e-06
2.17187e-05
1.89414e-06
1.20258e-05
2.10873e-05
7.47143e-06
2.46146e-05
1.78272e-05
8.76328e-06
2.62148e-05
1.03384e-05
2.75048e-05
1.76164e-05
8.19879e-06
2.50091e-05
1.59318e-05
1.69206e-06
2.51565e-05
-1.26903e-06
2.48629e-05
-2.00782e-07
2.26544e-05
4.18484e-06
1.55157e-05
2.18276e-05
1.0164e-05
2.62349e-05
1.79925e-05
1.17833e-05
2.82833e-05
-6.76421e-06
3.4072e-05
1.44179e-05
-1.19751e-05
3.40253e-05
1.38326e-05
-1.99369e-05
3.23843e-05
-2.06821e-05
3.13142e-05
-1.89725e-05
2.70518e-05
-1.40782e-05
6.78632e-06
2.45746e-05
-6.66859e-06
3.08993e-05
1.29158e-05
-5.60492e-06
-0.010987
-0.0105946
-0.0102888
-0.0100775
-0.00996113
-0.00994882
-0.0100699
-0.0103048
-0.0106477
-0.0110745
-0.0115626
-0.0120611
-0.0125068
-0.0128216
-0.0129549
-0.0129172
-0.0127165
-0.0123685
-0.0119231
-0.0114436
0.00232619
0.00228028
0.0021492
0.00198781
0.00183381
0.00174399
0.00167495
0.00158982
0.00146775
0.00131342
0.00111142
0.000888386
0.000699379
0.000605156
0.00066745
0.000935765
0.00131239
0.00170486
0.00203609
0.00225041
-0.00233645
-0.00210113
-0.00191574
-0.00178009
-0.00173077
-0.00178679
-0.00191449
-0.0020644
-0.00228243
-0.00253856
-0.00287001
-0.00322101
-0.00352361
-0.00369324
-0.0037297
-0.00365454
-0.00346615
-0.0031881
-0.00288644
-0.00259715
0.00291031
0.00297368
0.00299789
0.00301532
0.00302028
0.0030202
0.00295355
0.00287543
0.0027088
0.00251592
0.00218815
0.00181918
0.00151276
0.00138241
0.00150999
0.00176959
0.00210805
0.0024134
0.00264774
0.00281066
-0.000458598
-0.000310913
-0.000238014
-0.000191049
-0.000228566
-0.000244343
-0.000305714
-0.00035262
-0.000508098
-0.000704315
-0.00112501
-0.00163087
-0.00205873
-0.00228685
-0.00231015
-0.00212759
-0.00177022
-0.0013623
-0.00098128
-0.000674108
0.00202444
0.00212606
0.00217665
0.00222241
0.00221868
0.00220856
0.0021257
0.00205413
0.00185856
0.00163446
0.00112054
0.000583594
0.000208295
0.000148398
0.000363955
0.000721989
0.00110023
0.00142778
0.00169154
0.00188963
6.06514e-05
0.000104662
0.000108768
0.000112962
9.06023e-05
0.000112613
8.22498e-05
7.50035e-05
-7.18729e-05
-0.00028245
-0.000891035
-0.00153958
-0.00194216
-0.0019961
-0.00169889
-0.001245
-0.000786642
-0.000429662
-0.000177203
-2.0929e-05
0.00125597
0.00132612
0.00135885
0.00139285
0.00136833
0.00135445
0.0012774
0.00121145
0.00102326
0.000771405
0.000115622
-0.000489585
-0.000756669
-0.000571898
-0.000172676
0.000240296
0.000601668
0.000855777
0.00104166
0.00116895
0.000173773
0.0001836
0.000171166
0.000172267
0.000164775
0.000189049
0.000169172
0.00016438
4.11038e-05
-0.000181161
-0.000863769
-0.00150398
-0.00171875
-0.00145621
-0.000968724
-0.000552354
-0.000224433
-3.10354e-05
9.07542e-05
0.000150617
0.000743466
0.000783622
0.000799923
0.000815491
0.000792691
0.000777406
0.0007175
0.000662402
0.000518172
0.000290332
-0.000337122
-0.000847129
-0.00085626
-0.000556933
-0.000132874
0.000166549
0.00039859
0.000530514
0.000630964
0.000695529
0.000179025
0.000182787
0.00017253
0.000178236
0.000172872
0.000191193
0.000176552
0.000180543
9.87249e-05
-4.70227e-05
-0.000623441
-0.00115689
-0.00109765
-0.000794624
-0.000407475
-0.000171903
6.53556e-06
8.88905e-05
0.000147372
0.000170261
0.000436528
0.000457484
0.000463521
0.000469667
0.000450517
0.000437509
0.000393633
0.000357598
0.000265871
0.000139355
-0.000326248
-0.000619879
-0.000506741
-0.000239635
3.32935e-05
0.000170647
0.000283871
0.000332828
0.000382692
0.000411445
0.000155865
0.000160501
0.000155582
0.000162903
0.000158195
0.000173651
0.000164413
0.000190833
0.000156147
0.000180896
-0.000199747
-0.000575272
-0.000489168
-0.000328009
-0.000117501
-2.51215e-05
6.68812e-05
9.95036e-05
0.000135269
0.000147629
0.000262264
0.000272914
0.000273754
0.00027611
0.000259875
0.000249766
0.000216741
0.000198041
0.000150916
0.000142318
-8.04731e-05
-0.000198065
-0.000125545
-1.03228e-05
0.000111802
0.0001434
0.000195164
0.00020783
0.000235753
0.000248344
0.000127523
0.000133297
0.000132141
0.000139195
0.0001353
0.000148785
0.000144395
0.00018535
0.000191669
0.000365579
0.000228873
-0.000146373
-0.000154566
-0.000139837
-4.82533e-05
-1.03885e-05
5.47068e-05
7.59289e-05
0.000106759
0.00011769
0.000166167
0.000171882
0.000170709
0.000171404
0.000157762
0.00014936
0.000122333
0.000109806
7.8068e-05
0.000145087
0.000251639
8.32932e-06
-2.29405e-05
-1.50759e-05
5.42509e-05
6.7761e-05
0.000114969
0.000125816
0.000149143
0.000156851
0.000102668
0.000108159
0.000108638
0.000114262
0.000110956
0.000120338
0.000116542
0.000141315
0.000130458
0.000185718
0.000108641
-6.10594e-05
-5.50121e-05
-7.62971e-05
-1.48435e-05
-4.36276e-06
4.27456e-05
5.73123e-05
8.3416e-05
9.29072e-05
0.000114308
0.000117281
0.000115617
0.000115552
0.000104558
9.73626e-05
7.62724e-05
6.32577e-05
4.14087e-05
4.32995e-05
7.53013e-05
4.57428e-06
2.91013e-05
2.15207e-05
6.1566e-05
5.82078e-05
8.67198e-05
8.86109e-05
0.000104393
0.000108087
8.38026e-05
8.79603e-05
8.87534e-05
9.25737e-05
8.95637e-05
9.50958e-05
9.2268e-05
0.000104266
9.6782e-05
0.000106189
6.34069e-05
-2.57686e-05
-1.74728e-05
-4.13631e-05
2.93925e-07
3.5451e-06
3.81854e-05
4.7784e-05
6.82676e-05
7.54145e-05
8.58904e-05
8.73037e-05
8.58328e-05
8.5389e-05
7.68864e-05
7.09909e-05
5.52828e-05
4.32355e-05
2.73668e-05
1.71081e-05
3.10765e-05
8.91449e-06
3.95655e-05
3.09389e-05
5.91651e-05
5.14828e-05
7.03306e-05
6.89217e-05
7.98932e-05
8.14754e-05
7.06261e-05
7.31124e-05
7.37295e-05
7.59015e-05
7.28208e-05
7.55285e-05
7.30747e-05
7.75055e-05
7.37401e-05
7.00465e-05
4.88337e-05
-5.59434e-06
5.00144e-07
-1.95293e-05
9.7873e-06
1.08985e-05
3.66766e-05
4.3315e-05
5.89598e-05
6.37789e-05
6.98131e-05
7.01869e-05
6.92158e-05
6.8568e-05
6.21272e-05
5.76338e-05
4.63694e-05
3.61415e-05
2.57613e-05
1.41797e-05
2.27218e-05
1.40112e-05
4.07092e-05
3.28655e-05
5.37885e-05
4.64149e-05
5.97406e-05
5.78592e-05
6.58683e-05
6.64293e-05
6.19987e-05
6.27774e-05
6.32991e-05
6.40941e-05
6.09362e-05
6.17129e-05
5.92172e-05
5.91801e-05
5.81684e-05
5.01599e-05
4.18023e-05
6.18015e-06
1.24201e-05
-2.85827e-06
1.84779e-05
1.86755e-05
3.74415e-05
4.21091e-05
5.36508e-05
5.65023e-05
6.06716e-05
5.99201e-05
5.96165e-05
5.87017e-05
5.35864e-05
5.03079e-05
4.31167e-05
3.41115e-05
2.8747e-05
1.76152e-05
2.47569e-05
1.81926e-05
3.95128e-05
3.20104e-05
4.84009e-05
4.28953e-05
5.26341e-05
5.15321e-05
5.75963e-05
5.74203e-05
5.66532e-05
5.57396e-05
5.65229e-05
5.63215e-05
5.29323e-05
5.27088e-05
5.01703e-05
4.71848e-05
4.82481e-05
3.88369e-05
3.79234e-05
1.37754e-05
2.15608e-05
1.00099e-05
2.60583e-05
2.59954e-05
3.90379e-05
4.25705e-05
5.0842e-05
5.19673e-05
5.54029e-05
5.34073e-05
5.39221e-05
5.25364e-05
4.82641e-05
4.63711e-05
4.14313e-05
3.35293e-05
3.28063e-05
2.11321e-05
2.93032e-05
2.07494e-05
3.82476e-05
3.11419e-05
4.40366e-05
4.07906e-05
4.79347e-05
4.80724e-05
5.25576e-05
5.18011e-05
5.32437e-05
5.10945e-05
5.25334e-05
5.11331e-05
4.7924e-05
4.72914e-05
4.51559e-05
3.97411e-05
4.27106e-05
3.23518e-05
3.6722e-05
1.90314e-05
2.8629e-05
1.8824e-05
3.18822e-05
3.18183e-05
4.06568e-05
4.37874e-05
4.91396e-05
4.92595e-05
5.25242e-05
4.85855e-05
5.06008e-05
4.86907e-05
4.45305e-05
4.37276e-05
4.04081e-05
3.27223e-05
3.58198e-05
2.34291e-05
3.31927e-05
2.24628e-05
3.79324e-05
3.0486e-05
4.14527e-05
4.00892e-05
4.45543e-05
4.64268e-05
4.96185e-05
4.80542e-05
5.19186e-05
4.76673e-05
5.04114e-05
4.77729e-05
4.41633e-05
4.48622e-05
4.2138e-05
3.51556e-05
4.1321e-05
2.82041e-05
3.78217e-05
2.15429e-05
3.38695e-05
2.48314e-05
3.55079e-05
3.6519e-05
4.15458e-05
4.52285e-05
4.80384e-05
4.69379e-05
5.04452e-05
4.50141e-05
4.89047e-05
4.56733e-05
4.18387e-05
4.22657e-05
3.99258e-05
3.07596e-05
3.81284e-05
2.37106e-05
3.64516e-05
2.29519e-05
3.87662e-05
2.95107e-05
3.98447e-05
3.9935e-05
4.23138e-05
4.59964e-05
4.72274e-05
4.55081e-05
5.16564e-05
4.39702e-05
4.9621e-05
4.6262e-05
4.11002e-05
4.33098e-05
4.07731e-05
3.18813e-05
4.16521e-05
2.54758e-05
3.9787e-05
2.26545e-05
3.78058e-05
2.78223e-05
3.81522e-05
4.00543e-05
4.07935e-05
4.67127e-05
4.78787e-05
4.48057e-05
4.98068e-05
4.13113e-05
4.8145e-05
4.36411e-05
3.85582e-05
4.21179e-05
3.92389e-05
2.80942e-05
4.07109e-05
2.15394e-05
3.98041e-05
2.14088e-05
3.97725e-05
2.82913e-05
3.83189e-05
4.06589e-05
3.98458e-05
4.61835e-05
4.54172e-05
4.23658e-05
5.15875e-05
4.10059e-05
4.98927e-05
4.4343e-05
3.82419e-05
4.34701e-05
3.98926e-05
2.81269e-05
4.33049e-05
2.23723e-05
4.25779e-05
2.18402e-05
4.13478e-05
2.82665e-05
3.90666e-05
4.23812e-05
3.98057e-05
4.83209e-05
4.66822e-05
4.25978e-05
5.03255e-05
3.62035e-05
4.8444e-05
4.24911e-05
3.35962e-05
4.31091e-05
3.84724e-05
2.3711e-05
4.32061e-05
1.75588e-05
4.28662e-05
1.81861e-05
4.13946e-05
2.55375e-05
3.64917e-05
4.21224e-05
3.58037e-05
4.68768e-05
4.40746e-05
3.77616e-05
5.2002e-05
3.67579e-05
5.11422e-05
4.26672e-05
3.42843e-05
4.50341e-05
3.88732e-05
2.30847e-05
4.64928e-05
1.72726e-05
4.64537e-05
1.81385e-05
4.45547e-05
2.5987e-05
3.88437e-05
4.41573e-05
3.68727e-05
5.02169e-05
4.50801e-05
3.92781e-05
5.08565e-05
2.97503e-05
5.03988e-05
4.01953e-05
2.69545e-05
4.56675e-05
3.72707e-05
1.62195e-05
4.68464e-05
1.03022e-05
4.68152e-05
1.17526e-05
4.37499e-05
1.99926e-05
3.3931e-05
4.31214e-05
3.02345e-05
4.86228e-05
4.11758e-05
3.18142e-05
5.34645e-05
3.03222e-05
5.36183e-05
4.04744e-05
2.72396e-05
4.81957e-05
3.72455e-05
1.5883e-05
5.02561e-05
9.89164e-06
5.04679e-05
1.16638e-05
4.73858e-05
2.01694e-05
3.73171e-05
4.61816e-05
3.12126e-05
5.25316e-05
4.24413e-05
3.3148e-05
5.28019e-05
1.78505e-05
5.55115e-05
3.77868e-05
1.41225e-05
5.20016e-05
3.56041e-05
1.70873e-06
5.36726e-05
-3.4717e-06
5.35346e-05
-1.14883e-06
4.83597e-05
8.06684e-06
2.94477e-05
4.57278e-05
1.90406e-05
5.27085e-05
3.75489e-05
2.09078e-05
5.48606e-05
1.95027e-05
5.81962e-05
3.62214e-05
1.55909e-05
5.43569e-05
3.37686e-05
3.09779e-06
5.56377e-05
-2.68448e-06
5.5507e-05
-2.00643e-07
5.05512e-05
8.93379e-06
3.35714e-05
4.72911e-05
2.07092e-05
5.58984e-05
3.69271e-05
2.30822e-05
5.81343e-05
-5.05524e-06
6.85118e-05
3.11236e-05
-1.3267e-05
6.84305e-05
3.03288e-05
-2.79154e-05
6.69534e-05
-3.07364e-05
6.56384e-05
-2.72756e-05
5.74359e-05
-1.74172e-05
2.13848e-05
5.15616e-05
-3.3899e-06
6.32255e-05
2.89527e-05
-1.63836e-06
-0.0135298
-0.0129809
-0.0125317
-0.0122041
-0.0120122
-0.0119859
-0.0121413
-0.0124567
-0.0129214
-0.0134995
-0.0141547
-0.0148185
-0.0154097
-0.0158338
-0.0160272
-0.0159975
-0.0157564
-0.0153253
-0.0147627
-0.0141416
0.00193435
0.00199124
0.00192504
0.00179067
0.00163342
0.00151833
0.00138219
0.00120737
0.000972628
0.000687736
0.000341638
-2.52898e-05
-0.000337029
-0.000510504
-0.00046536
-0.00015215
0.00032596
0.000859893
0.00135103
0.00172254
-0.00274643
-0.00243868
-0.0022224
-0.0020874
-0.00207337
-0.00218087
-0.00237772
-0.00261761
-0.00295225
-0.00334973
-0.0038494
-0.00437152
-0.00481349
-0.00505166
-0.00507943
-0.00489743
-0.00453538
-0.00405838
-0.00356796
-0.003122
0.00338187
0.00345932
0.00347788
0.00348062
0.00345802
0.00341395
0.00328829
0.00313284
0.00285455
0.00251838
0.00200375
0.00145081
0.00102382
0.000887839
0.0011375
0.00158356
0.00213141
0.00262097
0.00299163
0.00323991
-0.000285188
-0.000126174
-5.51138e-05
-1.88274e-05
-7.96863e-05
-0.00012082
-0.000230622
-0.000344177
-0.000611106
-0.000961851
-0.00160211
-0.0023155
-0.00284474
-0.00304784
-0.00291548
-0.00251675
-0.00195099
-0.00138187
-0.000895911
-0.000529301
0.00247798
0.00259718
0.00265323
0.00269988
0.00267698
0.00264354
0.00251212
0.00237514
0.00206422
0.00167625
0.000918578
0.00018357
-0.000249138
-0.000194
0.000213633
0.000771179
0.00130836
0.0017436
0.00207581
0.00231682
0.000290884
0.000348657
0.00035566
0.000357961
0.000326107
0.000334315
0.000266352
0.000205512
-5.07358e-05
-0.000428879
-0.00130562
-0.00214893
-0.00257551
-0.00248179
-0.00197891
-0.00134314
-0.000752254
-0.000310958
-3.78753e-06
0.000187813
0.00158488
0.00167349
0.00171334
0.00174989
0.00171288
0.00168295
0.00156689
0.0014468
0.00115078
0.000728912
-0.000200174
-0.000970996
-0.00120056
-0.00085783
-0.000266444
0.000288732
0.000752443
0.00107367
0.00130923
0.00147254
0.0003707
0.000392114
0.000381876
0.000385356
0.000369839
0.000385565
0.000336366
0.000289362
7.14567e-05
-0.000312702
-0.00126945
-0.00205866
-0.0022
-0.00176823
-0.00110772
-0.00057499
-0.000163401
8.29844e-05
0.000244243
0.00033063
0.000967426
0.00102024
0.00104049
0.00105745
0.00102545
0.000999552
0.000910659
0.000815484
0.00058567
0.000209205
-0.000674624
-0.00129123
-0.00120101
-0.000747711
-0.000183053
0.000203777
0.000502631
0.0006774
0.000812948
0.000902097
0.000329513
0.000341336
0.000332269
0.000340403
0.000328764
0.000342064
0.0003066
0.000283515
0.000133293
-0.000135304
-0.000946344
-0.00156717
-0.001396
-0.000963003
-0.000461259
-0.000160892
7.02762e-05
0.000184071
0.000269294
0.000309259
0.000586655
0.000615424
0.000623114
0.000630381
0.000604116
0.000584632
0.000521073
0.000460999
0.0003134
8.7e-05
-0.000576054
-0.00091044
-0.000694948
-0.000325345
3.16294e-05
0.000211622
0.000364266
0.000435798
0.000507743
0.00055084
0.000266204
0.000276532
0.000272396
0.000281866
0.000272398
0.000285919
0.000263681
0.000279677
0.000206661
0.000171447
-0.000374024
-0.000792604
-0.000621614
-0.000393165
-0.000119441
5.52911e-07
0.000124089
0.000173172
0.000226897
0.000249916
0.000364334
0.000379956
0.000381381
0.000384779
0.000362995
0.000349325
0.000303458
0.00027425
0.00019854
0.000146877
-0.000189882
-0.000322433
-0.000185651
-2.6925e-05
0.00013644
0.000181887
0.000256549
0.000279917
0.000322383
0.000343398
0.000208013
0.000218005
0.000217464
0.000226386
0.000218863
0.0002323
0.000220328
0.000262059
0.000254079
0.000423664
0.000205028
-0.000227921
-0.000194074
-0.000162125
-3.66737e-05
1.1143e-05
9.83548e-05
0.000129297
0.000173778
0.000192008
0.000238198
0.000247291
0.000246286
0.000247878
0.000229775
0.000219291
0.00018312
0.000166709
0.000120672
0.000188051
0.000272718
-3.08663e-05
-4.12261e-05
-2.51325e-05
7.11402e-05
9.17614e-05
0.000157835
0.000175717
0.000210416
0.000223748
0.000162743
0.000171329
0.000172243
0.000179323
0.000173081
0.000182717
0.000173587
0.000199918
0.000179854
0.000239169
0.000132106
-8.80834e-05
-6.91195e-05
-9.18573e-05
-6.22574e-06
9.34763e-06
7.4734e-05
9.62123e-05
0.000133366
0.000148122
0.000168003
0.000173268
0.000171593
0.000172193
0.000157573
0.00014886
0.000120845
0.000104902
7.37274e-05
7.41043e-05
9.73962e-05
-5.63568e-06
3.07116e-05
2.03873e-05
7.8957e-05
7.74268e-05
0.000120079
0.000126054
0.000150519
0.000157937
0.000130643
0.000136904
0.000137928
0.000142727
0.000137224
0.000142755
0.000135895
0.00014801
0.000134464
0.000142455
8.56125e-05
-3.37919e-05
-1.73136e-05
-4.70612e-05
1.15577e-05
1.66531e-05
6.50204e-05
7.89095e-05
0.000107827
0.000118537
0.000128446
0.000131305
0.000129743
0.000129699
0.000118244
0.000111105
9.01695e-05
7.52108e-05
5.28924e-05
3.85515e-05
4.83442e-05
9.58357e-06
5.01878e-05
3.66971e-05
7.82288e-05
6.99284e-05
9.90504e-05
9.97678e-05
0.000117197
0.000121136
0.000109142
0.000112863
0.000113559
0.000116256
0.000110967
0.000113389
0.000107757
0.000111161
0.00010351
9.60469e-05
6.81762e-05
-4.55301e-06
8.11682e-06
-1.77937e-05
2.39377e-05
2.53224e-05
6.12535e-05
7.04823e-05
9.24052e-05
9.94715e-05
0.000105599
0.000106699
0.000105645
0.000105127
9.62502e-05
9.07353e-05
7.55914e-05
6.2533e-05
4.8061e-05
3.1721e-05
3.88044e-05
2.03354e-05
5.54225e-05
4.28248e-05
7.36749e-05
6.50035e-05
8.59049e-05
8.52007e-05
9.80146e-05
9.99815e-05
9.54104e-05
9.6638e-05
9.7212e-05
9.8125e-05
9.29599e-05
9.32786e-05
8.82346e-05
8.64548e-05
8.32533e-05
7.08313e-05
6.00116e-05
1.25774e-05
2.46478e-05
4.38125e-06
3.50843e-05
3.49576e-05
6.11477e-05
6.74517e-05
8.35859e-05
8.7705e-05
9.24081e-05
9.16843e-05
9.14196e-05
9.03481e-05
8.31273e-05
7.90498e-05
6.90779e-05
5.72857e-05
4.98365e-05
3.39196e-05
4.14958e-05
2.79718e-05
5.63842e-05
4.46308e-05
6.87485e-05
6.20679e-05
7.74019e-05
7.71475e-05
8.67639e-05
8.72778e-05
8.7025e-05
8.58047e-05
8.67876e-05
8.63366e-05
8.10517e-05
8.03771e-05
7.57856e-05
7.05503e-05
7.08853e-05
5.68537e-05
5.61648e-05
2.36797e-05
3.705e-05
2.13121e-05
4.4643e-05
4.41777e-05
6.25098e-05
6.72616e-05
7.88099e-05
8.04473e-05
8.47726e-05
8.20852e-05
8.29193e-05
8.10404e-05
7.48504e-05
7.24683e-05
6.5458e-05
5.47255e-05
5.37009e-05
3.70845e-05
4.73103e-05
3.2734e-05
5.65993e-05
4.56658e-05
6.47895e-05
6.08072e-05
7.19837e-05
7.3015e-05
8.00208e-05
7.93899e-05
8.18557e-05
7.86471e-05
8.06589e-05
7.85854e-05
7.35497e-05
7.2661e-05
6.88703e-05
6.0707e-05
6.43665e-05
4.90237e-05
5.57144e-05
3.12666e-05
4.65734e-05
3.29344e-05
5.19498e-05
5.1677e-05
6.41137e-05
6.84653e-05
7.59849e-05
7.6053e-05
8.06027e-05
7.50875e-05
7.79849e-05
7.51827e-05
6.91026e-05
6.82406e-05
6.32927e-05
5.24929e-05
5.69793e-05
3.91422e-05
5.25547e-05
3.58235e-05
5.75843e-05
4.63635e-05
6.2656e-05
6.10921e-05
6.81654e-05
7.13077e-05
7.61119e-05
7.41513e-05
7.96654e-05
7.33826e-05
7.73919e-05
7.35792e-05
6.80204e-05
6.90365e-05
6.47913e-05
5.44852e-05
6.3033e-05
4.3985e-05
5.80004e-05
3.50526e-05
5.37202e-05
4.07474e-05
5.65577e-05
5.7818e-05
6.49142e-05
7.02291e-05
7.42037e-05
7.25042e-05
7.78423e-05
6.97968e-05
7.54857e-05
7.08048e-05
6.4884e-05
6.59546e-05
6.2163e-05
4.91932e-05
5.98734e-05
3.8876e-05
5.71914e-05
3.69054e-05
5.96752e-05
4.61395e-05
6.14058e-05
6.18844e-05
6.55063e-05
7.11622e-05
7.30548e-05
7.04618e-05
7.9079e-05
6.80008e-05
7.61345e-05
7.10507e-05
6.34707e-05
6.69325e-05
6.28614e-05
4.97762e-05
6.39712e-05
4.03211e-05
6.13391e-05
3.65624e-05
5.92005e-05
4.45552e-05
5.98099e-05
6.25469e-05
6.3721e-05
7.22128e-05
7.36198e-05
6.92589e-05
7.70032e-05
6.44012e-05
7.4477e-05
6.78149e-05
6.00589e-05
6.56174e-05
6.10229e-05
4.50204e-05
6.33696e-05
3.55636e-05
6.20167e-05
3.50587e-05
6.18357e-05
4.49974e-05
5.99626e-05
6.35062e-05
6.23177e-05
7.18083e-05
7.06705e-05
6.60509e-05
7.89977e-05
6.33286e-05
7.64669e-05
6.82664e-05
5.90043e-05
6.71991e-05
6.15648e-05
4.42644e-05
6.66336e-05
3.57657e-05
6.5664e-05
3.51635e-05
6.41216e-05
4.48379e-05
6.08269e-05
6.58333e-05
6.19116e-05
7.44517e-05
7.1854e-05
6.57317e-05
7.76564e-05
5.72172e-05
7.50309e-05
6.58922e-05
5.31018e-05
6.70214e-05
5.9823e-05
3.85398e-05
6.70547e-05
2.96725e-05
6.66455e-05
3.05544e-05
6.46169e-05
4.13704e-05
5.78224e-05
6.58031e-05
5.69172e-05
7.31052e-05
6.86526e-05
5.97127e-05
7.96346e-05
5.68475e-05
7.82897e-05
6.57439e-05
5.28679e-05
6.95058e-05
6.00512e-05
3.6727e-05
7.12659e-05
2.82703e-05
7.1306e-05
2.96597e-05
6.86367e-05
4.12294e-05
6.02243e-05
6.84097e-05
5.73788e-05
7.71501e-05
6.94212e-05
6.05399e-05
7.84887e-05
4.80199e-05
7.78599e-05
6.26226e-05
4.36695e-05
7.07073e-05
5.80331e-05
2.78984e-05
7.23311e-05
1.93401e-05
7.24332e-05
2.15311e-05
6.82049e-05
3.36626e-05
5.44572e-05
6.74872e-05
4.91193e-05
7.57254e-05
6.46101e-05
5.13215e-05
8.15924e-05
4.7259e-05
8.19806e-05
6.24794e-05
4.24912e-05
7.42141e-05
5.76766e-05
2.58527e-05
7.69011e-05
1.726e-05
7.73192e-05
1.99857e-05
7.28067e-05
3.258e-05
5.77532e-05
7.12361e-05
4.8991e-05
8.05537e-05
6.54712e-05
5.15282e-05
8.10251e-05
3.20703e-05
8.47376e-05
5.90092e-05
2.65026e-05
7.92996e-05
5.55066e-05
8.52126e-06
8.15221e-05
8.49577e-07
8.15236e-05
4.30327e-06
7.43648e-05
1.77646e-05
4.84985e-05
7.09316e-05
3.42298e-05
8.12028e-05
5.93391e-05
3.67077e-05
8.3622e-05
3.21636e-05
8.85881e-05
5.67047e-05
2.61647e-05
8.30297e-05
5.30224e-05
7.88361e-06
8.47133e-05
-3.54562e-07
8.4695e-05
3.40719e-06
7.74751e-05
1.69029e-05
5.24267e-05
7.30993e-05
3.44449e-05
8.5448e-05
5.79356e-05
3.74698e-05
8.72214e-05
4.29953e-06
0.000100642
5.06132e-05
-6.50124e-06
9.9507e-05
4.89362e-05
-2.72372e-05
9.79376e-05
-3.2201e-05
9.6542e-05
-2.73105e-05
8.53727e-05
-1.30468e-05
3.8474e-05
7.79154e-05
7.14436e-06
9.38471e-05
4.83573e-05
9.55507e-06
-0.0149498
-0.0143248
-0.013811
-0.0134358
-0.013222
-0.0132059
-0.0133951
-0.0137673
-0.0143089
-0.0149766
-0.0157259
-0.0164776
-0.0171395
-0.0176078
-0.0178141
-0.0177671
-0.0174816
-0.016986
-0.0163465
-0.0156431
0.00141562
0.00152447
0.00149526
0.00138191
0.00123485
0.00111135
0.00093501
0.000702852
0.000392752
2.06783e-05
-0.00041889
-0.000873688
-0.00125308
-0.00146173
-0.00140892
-0.00105285
-0.000506984
0.000109719
0.000686364
0.00113705
-0.00310468
-0.00274856
-0.00250907
-0.00237062
-0.00238099
-0.00252211
-0.00276676
-0.00307152