/*--------------------------------*- C++ -*----------------------------------*\
| =========                 |                                                 |
| \\      /  F ield         | OpenFOAM: The Open Source CFD Toolbox           |
|  \\    /   O peration     | Version:  2.4.0                                 |
|   \\  /    A nd           | Web:      www.OpenFOAM.org                      |
|    \\/     M anipulation  |                                                 |
\*---------------------------------------------------------------------------*/
FoamFile
{
    version     2.0;
    format      ascii;
    class       volScalarField;
    location    "240";
    object      p;
}
// * * * * * * * * * * * * * * * * * * * * * * * * * * * * * * * * * * * * * //

dimensions      [0 2 -2 0 0 0 0];

internalField   nonuniform List<scalar> 
283312
(
-0.00622615
-0.00628839
-0.00653031
-0.00687125
-0.00722274
-0.00751505
-0.0077406
-0.00789558
-0.00801338
-0.00811841
-0.00823153
-0.00833997
-0.00841171
-0.00839168
-0.0082441
-0.00797602
-0.00760066
-0.00715298
-0.00671281
-0.00637751
0.00213995
0.00163602
0.00121031
0.000943287
0.00084682
0.000914953
0.00106076
0.00120408
0.00131684
0.0014073
0.00147829
0.00156141
0.00169343
0.0018967
0.00218124
0.00254574
0.00285663
0.00300131
0.0029181
0.00260741
-0.0023377
-0.00217628
-0.00194232
-0.00169317
-0.00149385
-0.00139167
-0.00137053
-0.00137459
-0.00142162
-0.0014607
-0.00148764
-0.00146339
-0.00139169
-0.00129666
-0.00125893
-0.00137889
-0.00163621
-0.00194397
-0.00221317
-0.00235549
0.00145329
0.00163301
0.00178199
0.00190043
0.00198541
0.00205595
0.00206364
0.002071
0.00203887
0.00205202
0.00207299
0.00212189
0.00214536
0.00209285
0.0019525
0.00170132
0.0014461
0.0012632
0.001214
0.00129609
-0.000756774
-0.000553925
-0.000434042
-0.000353275
-0.00034825
-0.000334486
-0.000345304
-0.000330725
-0.000359276
-0.000333163
-0.000337172
-0.000392873
-0.000581767
-0.000918598
-0.00135946
-0.00170535
-0.00179322
-0.00164464
-0.00135168
-0.0010286
0.00118929
0.00130096
0.00136023
0.00140688
0.0014215
0.00142948
0.00139551
0.00138286
0.00131943
0.00133175
0.00128173
0.00115775
0.000867832
0.000488693
0.000209697
0.000138583
0.000274881
0.000527429
0.000800413
0.00102921
-0.000155651
-0.000114361
-0.000106197
-9.92338e-05
-0.000110046
-8.46232e-05
-8.48379e-05
-5.62111e-05
-8.68272e-05
-5.96788e-05
-0.000166666
-0.000432142
-0.000858285
-0.00128489
-0.00142931
-0.00127748
-0.000959461
-0.000640698
-0.000393736
-0.000237381
0.000755284
0.00080503
0.000829032
0.000854361
0.000843262
0.000840043
0.000802918
0.000782694
0.000714786
0.000706126
0.000554494
0.000248924
-0.00015495
-0.000358407
-0.000319222
-9.35851e-05
0.000190977
0.000419889
0.000584111
0.000689212
-2.91514e-06
-3.0384e-07
-1.05202e-05
-1.15762e-05
-1.2784e-05
9.21515e-06
1.11225e-05
3.08415e-05
3.52497e-06
7.86493e-06
-0.000181673
-0.000582052
-0.000981654
-0.0010714
-0.000867874
-0.0005835
-0.000321004
-0.000156422
-5.94131e-05
-1.6129e-05
0.000437335
0.000462122
0.000473072
0.000483861
0.000471346
0.00046318
0.000433124
0.000410862
0.000358279
0.000341685
0.000164664
-0.000200886
-0.000450695
-0.000439764
-0.0002139
7.24974e-06
0.000189964
0.000294923
0.000365773
0.000407707
4.26616e-05
4.10803e-05
3.25636e-05
3.47006e-05
3.41044e-05
4.92159e-05
4.96367e-05
6.57942e-05
4.88858e-05
7.37803e-05
-0.000100973
-0.000527182
-0.000706863
-0.000626817
-0.000387831
-0.000205677
-6.92258e-05
-6.58904e-06
3.0405e-05
4.14434e-05
0.000248937
0.000260753
0.000264611
0.000267924
0.000256935
0.000248294
0.000224969
0.000207342
0.000172465
0.000191299
5.61447e-05
-0.000223679
-0.000327708
-0.000222647
-4.43998e-05
6.8363e-05
0.000153061
0.00018915
0.000219141
0.000235084
5.44274e-05
5.46165e-05
5.03116e-05
5.39384e-05
5.28641e-05
6.42269e-05
6.3956e-05
8.74815e-05
8.42166e-05
0.000190402
7.70516e-05
-0.000268912
-0.000352492
-0.000287759
-0.000143859
-6.32142e-05
4.02754e-06
2.78372e-05
4.77438e-05
5.24605e-05
0.000144626
0.000149823
0.000150033
0.000150422
0.000140745
0.000133031
0.000114069
0.000101863
8.15541e-05
0.000138487
9.82437e-05
-5.00708e-05
-0.000107028
-5.21091e-05
3.41123e-05
7.05399e-05
0.000107712
0.00011732
0.000132109
0.000137864
5.26013e-05
5.44328e-05
5.3045e-05
5.67281e-05
5.56175e-05
6.47219e-05
6.51216e-05
9.37374e-05
0.000105804
0.000280639
0.000267874
-4.9623e-05
-0.00013606
-0.00013874
-7.45398e-05
-3.45703e-05
1.1033e-05
2.66463e-05
4.37039e-05
4.8625e-05
8.8705e-05
9.09205e-05
8.97061e-05
8.89823e-05
8.07001e-05
7.38839e-05
5.76548e-05
4.7047e-05
2.92975e-05
8.6302e-05
0.000196578
3.79872e-05
-1.85959e-05
-1.88627e-05
2.17597e-05
3.50331e-05
6.33513e-05
7.00457e-05
8.16535e-05
8.46789e-05
4.62611e-05
4.85195e-05
4.84658e-05
5.13975e-05
5.03679e-05
5.64757e-05
5.63776e-05
7.28817e-05
6.91494e-05
0.000107944
6.76246e-05
-2.97584e-05
-3.91747e-05
-5.40377e-05
-2.03454e-05
-1.15738e-05
1.48751e-05
2.35008e-05
3.71631e-05
4.17168e-05
5.94375e-05
6.01965e-05
5.86893e-05
5.76462e-05
5.09622e-05
4.51504e-05
3.24488e-05
2.20875e-05
1.01843e-05
9.55395e-06
4.1447e-05
1.06397e-05
1.96187e-05
1.71516e-05
3.67826e-05
3.54655e-05
4.92605e-05
4.92941e-05
5.62059e-05
5.7084e-05
3.95986e-05
4.14582e-05
4.17628e-05
4.36852e-05
4.2636e-05
4.61676e-05
4.61963e-05
5.43663e-05
5.20651e-05
5.88936e-05
3.44499e-05
-1.46254e-05
-1.60073e-05
-2.97936e-05
-7.83656e-06
-4.16696e-06
1.481e-05
2.07925e-05
3.16714e-05
3.54101e-05
4.38408e-05
4.39528e-05
4.26545e-05
4.1605e-05
3.64897e-05
3.18252e-05
2.23972e-05
1.35572e-05
4.85755e-06
-1.90634e-06
1.21476e-05
7.09189e-06
2.33641e-05
2.10903e-05
3.46021e-05
3.06404e-05
3.91461e-05
3.76131e-05
4.22093e-05
4.22792e-05
3.42123e-05
3.53374e-05
3.55966e-05
3.66025e-05
3.53295e-05
3.70134e-05
3.68466e-05
4.02094e-05
3.95853e-05
3.84363e-05
2.60701e-05
-4.53408e-06
-5.54338e-06
-1.65281e-05
-1.46982e-06
8.21715e-07
1.498e-05
1.94849e-05
2.79528e-05
3.06559e-05
3.51797e-05
3.49694e-05
3.40696e-05
3.31301e-05
2.93404e-05
2.58445e-05
1.91173e-05
1.20864e-05
6.26418e-06
-3.98186e-07
7.33842e-06
7.55654e-06
2.23532e-05
2.02564e-05
3.02267e-05
2.6454e-05
3.22988e-05
3.08069e-05
3.41545e-05
3.39934e-05
3.03915e-05
3.07015e-05
3.09012e-05
3.11581e-05
2.9711e-05
3.01191e-05
2.95225e-05
3.00659e-05
3.04972e-05
2.66821e-05
2.16061e-05
1.36537e-06
1.61191e-06
-6.42012e-06
4.3213e-06
5.81187e-06
1.61205e-05
1.94672e-05
2.57784e-05
2.75077e-05
3.03002e-05
2.96864e-05
2.92376e-05
2.83484e-05
2.54198e-05
2.2877e-05
1.8696e-05
1.28614e-05
9.69881e-06
3.70904e-06
8.97077e-06
8.74352e-06
2.04713e-05
1.80634e-05
2.59391e-05
2.32391e-05
2.75198e-05
2.66858e-05
2.9314e-05
2.89917e-05
2.7896e-05
2.73853e-05
2.76928e-05
2.74653e-05
2.5781e-05
2.54893e-05
2.45461e-05
2.32492e-05
2.43203e-05
1.97092e-05
1.86722e-05
5.21859e-06
7.20655e-06
1.44183e-06
9.38659e-06
1.04118e-05
1.75392e-05
2.00821e-05
2.46533e-05
2.54597e-05
2.74607e-05
2.63562e-05
2.63694e-05
2.53908e-05
2.30248e-05
2.14714e-05
1.86381e-05
1.3869e-05
1.32037e-05
7.05745e-06
1.19911e-05
9.47447e-06
1.88126e-05
1.62897e-05
2.24174e-05
2.10016e-05
2.42429e-05
2.42224e-05
2.62767e-05
2.58162e-05
2.61612e-05
2.51905e-05
2.57653e-05
2.49244e-05
2.33506e-05
2.26771e-05
2.18124e-05
1.90309e-05
2.06401e-05
1.5643e-05
1.73488e-05
8.0135e-06
1.15266e-05
6.80819e-06
1.32663e-05
1.39644e-05
1.88473e-05
2.09336e-05
2.39146e-05
2.42463e-05
2.58623e-05
2.38289e-05
2.46457e-05
2.35768e-05
2.13135e-05
2.03974e-05
1.8591e-05
1.42872e-05
1.55138e-05
9.2616e-06
1.43388e-05
1.00818e-05
1.7925e-05
1.50133e-05
2.02217e-05
1.98007e-05
2.18519e-05
2.28442e-05
2.44803e-05
2.36769e-05
2.55369e-05
2.35747e-05
2.4707e-05
2.32745e-05
2.14702e-05
2.15215e-05
2.01335e-05
1.65669e-05
1.95553e-05
1.31109e-05
1.75403e-05
9.32735e-06
1.46361e-05
1.05509e-05
1.56509e-05
1.67716e-05
1.96327e-05
2.17753e-05
2.34095e-05
2.30852e-05
2.45325e-05
2.20414e-05
2.3713e-05
2.20197e-05
2.01364e-05
1.97671e-05
1.86528e-05
1.37071e-05
1.70079e-05
1.00193e-05
1.61116e-05
1.02274e-05
1.79025e-05
1.38644e-05
1.88094e-05
1.90637e-05
2.03693e-05
2.22327e-05
2.29521e-05
2.23026e-05
2.5427e-05
2.16923e-05
2.42814e-05
2.26989e-05
1.99917e-05
2.06392e-05
1.9444e-05
1.50031e-05
1.94496e-05
1.17183e-05
1.82605e-05
1.00984e-05
1.68699e-05
1.25098e-05
1.74397e-05
1.88089e-05
1.93553e-05
2.25475e-05
2.35097e-05
2.2042e-05
2.40431e-05
2.01723e-05
2.31763e-05
2.10003e-05
1.85328e-05
1.975e-05
1.84321e-05
1.26666e-05
1.84677e-05
9.19982e-06
1.78413e-05
9.34239e-06
1.80176e-05
1.29493e-05
1.76038e-05
1.90454e-05
1.89132e-05
2.20067e-05
2.18485e-05
2.05726e-05
2.52668e-05
2.04364e-05
2.4366e-05
2.17259e-05
1.87852e-05
2.06582e-05
1.90557e-05
1.32679e-05
2.00873e-05
1.03635e-05
1.94803e-05
9.9825e-06
1.88251e-05
1.30759e-05
1.81473e-05
2.00153e-05
1.91499e-05
2.33406e-05
2.2903e-05
2.11083e-05
2.42463e-05
1.7486e-05
2.31405e-05
2.05851e-05
1.59323e-05
2.01989e-05
1.8149e-05
1.06671e-05
1.96215e-05
7.45857e-06
1.92164e-05
7.77944e-06
1.85462e-05
1.14443e-05
1.63821e-05
1.96371e-05
1.66485e-05
2.20748e-05
2.1208e-05
1.80288e-05
2.53268e-05
1.85666e-05
2.48667e-05
2.09601e-05
1.71298e-05
2.13272e-05
1.86237e-05
1.10267e-05
2.15907e-05
8.08162e-06
2.13347e-05
8.40953e-06
2.04782e-05
1.22704e-05
1.82285e-05
2.08696e-05
1.79468e-05
2.42229e-05
2.21779e-05
1.97007e-05
2.43257e-05
1.42604e-05
2.39715e-05
1.94346e-05
1.26062e-05
2.13552e-05
1.76471e-05
6.96914e-06
2.12993e-05
3.96597e-06
2.10232e-05
4.60642e-06
1.9521e-05
8.64094e-06
1.48683e-05
1.9926e-05
1.381e-05
2.27611e-05
1.96846e-05
1.49573e-05
2.59865e-05
1.57264e-05
2.58357e-05
1.99854e-05
1.39425e-05
2.26145e-05
1.79104e-05
8.00294e-06
2.31433e-05
4.95552e-06
2.30248e-05
5.70133e-06
2.17023e-05
9.78626e-06
1.76306e-05
2.18712e-05
1.54633e-05
2.51731e-05
2.10054e-05
1.68619e-05
2.52472e-05
7.84566e-06
2.6558e-05
1.84448e-05
5.68201e-06
2.4541e-05
1.70396e-05
-8.60553e-07
2.48161e-05
-3.31534e-06
2.44872e-05
-2.26861e-06
2.19098e-05
2.24222e-06
1.22723e-05
2.13131e-05
7.73078e-06
2.48208e-05
1.80233e-05
9.02638e-06
2.63694e-05
1.05929e-05
2.76694e-05
1.7815e-05
8.48403e-06
2.52003e-05
1.61398e-05
2.07559e-06
2.53055e-05
-8.57401e-07
2.50274e-05
1.95637e-07
2.28464e-05
4.5286e-06
1.57534e-05
2.20524e-05
1.0418e-05
2.64365e-05
1.81872e-05
1.20388e-05
2.84073e-05
-6.44105e-06
3.41899e-05
1.45982e-05
-1.15854e-05
3.41314e-05
1.40077e-05
-1.94252e-05
3.24249e-05
-2.01668e-05
3.13791e-05
-1.84862e-05
2.71694e-05
-1.36602e-05
7.02152e-06
2.47673e-05
-6.36667e-06
3.10775e-05
1.31107e-05
-5.28103e-06
-0.0109098
-0.010517
-0.0102101
-0.00999729
-0.00987919
-0.00986226
-0.0099774
-0.0102058
-0.010542
-0.0109627
-0.0114465
-0.0119433
-0.0123905
-0.0127103
-0.0128487
-0.0128157
-0.0126221
-0.0122812
-0.0118415
-0.0113653
0.00234994
0.00230409
0.00217182
0.00200924
0.00185442
0.0017631
0.00169436
0.00160986
0.00148881
0.00133603
0.00113572
0.00091403
0.000725112
0.0006306
0.000689712
0.000953207
0.0013297
0.00172303
0.00205624
0.00227281
-0.00234982
-0.00210754
-0.00191419
-0.00177122
-0.00171517
-0.00176591
-0.00188995
-0.0020357
-0.0022499
-0.0025024
-0.00283137
-0.00318243
-0.00348875
-0.00366595
-0.00371055
-0.00364426
-0.0034667
-0.00319752
-0.00290203
-0.0026141
0.00288186
0.00294985
0.00297815
0.00299899
0.00300605
0.00300846
0.00294309
0.00286668
0.00270178
0.0025111
0.00218533
0.00181628
0.0015052
0.0013681
0.00148807
0.00174142
0.00207548
0.00237843
0.00261278
0.0027782
-0.000474265
-0.000322203
-0.000245454
-0.000194691
-0.000229296
-0.000242763
-0.000302326
-0.000347088
-0.000500087
-0.000693058
-0.00110956
-0.00161423
-0.00204922
-0.00229048
-0.00232478
-0.00214991
-0.00179545
-0.00138715
-0.00100407
-0.000693641
0.00200012
0.0021043
0.00215696
0.00220448
0.00220231
0.00219336
0.00211143
0.00204079
0.00184677
0.00162522
0.00111749
0.000585495
0.000205044
0.00013372
0.000336374
0.000687928
0.00106489
0.00139447
0.00166126
0.00186253
4.90287e-05
9.55384e-05
0.000101618
0.000107761
8.62605e-05
0.000108944
7.90194e-05
7.20763e-05
-7.3139e-05
-0.000280208
-0.000876304
-0.00150943
-0.00191405
-0.00198334
-0.0017022
-0.00125843
-0.000804095
-0.000447408
-0.000193527
-3.49581e-05
0.00124001
0.00131136
0.00134502
0.00137993
0.00135638
0.00134314
0.00126678
0.00120125
0.00101493
0.000766479
0.000123935
-0.000463715
-0.000722058
-0.000550243
-0.000169949
0.000229049
0.000584014
0.000836758
0.0010232
0.00115178
0.000166058
0.0001773
0.000165974
0.000167979
0.000160848
0.000185213
0.000165411
0.000160404
3.81726e-05
-0.000181676
-0.000854115
-0.00148034
-0.0016841
-0.00142887
-0.000958498
-0.000554801
-0.000233244
-4.15525e-05
8.0477e-05
0.000141563
0.000734155
0.000774777
0.000791435
0.000807555
0.000785217
0.000770241
0.000710841
0.000655873
0.000513022
0.000286997
-0.000332813
-0.000832248
-0.000836372
-0.000540879
-0.000127726
0.000163559
0.000390898
0.000521141
0.000621111
0.000685918
0.000174318
0.0001788
0.000169108
0.000175263
0.000170098
0.000188464
0.000173885
0.000177669
9.64293e-05
-4.83164e-05
-0.000619317
-0.00114511
-0.00108177
-0.000782003
-0.000402595
-0.000172745
2.2577e-06
8.34259e-05
0.000141661
0.000164998
0.000431334
0.000452446
0.000458593
0.000465018
0.000446102
0.000433234
0.000389706
0.000353612
0.000262762
0.000136513
-0.000325285
-0.000613848
-0.000499067
-0.000233421
3.51633e-05
0.000169295
0.000280271
0.000328249
0.000377589
0.000406276
0.000153028
0.00015802
0.000153371
0.000160969
0.000156399
0.000171962
0.000162824
0.000189171
0.000154745
0.000179551
-0.00019831
-0.000570658
-0.000483264
-0.0003234
-0.00011589
-2.57161e-05
6.46909e-05
9.66655e-05
0.000132131
0.000144614
0.000259396
0.000270101
0.000270956
0.000273458
0.000257341
0.000247314
0.000214536
0.000195755
0.000149188
0.000140221
-8.09707e-05
-0.000196132
-0.000122958
-8.23243e-06
0.000112202
0.00014262
0.000193373
0.000205547
0.000233092
0.000245579
0.000125801
0.000131752
0.000130716
0.000137962
0.000134176
0.000147816
0.00014356
0.000184613
0.000191125
0.000365125
0.000229372
-0.000145258
-0.000153259
-0.000138739
-4.79094e-05
-1.08244e-05
5.35429e-05
7.44277e-05
0.000105009
0.000115948
0.000164579
0.00017032
0.000169131
0.000169919
0.000156341
0.000148017
0.000121179
0.000108663
7.74185e-05
0.000144339
0.000251815
9.16171e-06
-2.21388e-05
-1.46273e-05
5.41129e-05
6.73083e-05
0.00011407
0.000124678
0.000147746
0.000155369
0.000101625
0.000107206
0.000107731
0.000113496
0.000110272
0.000119813
0.000116149
0.000141103
0.000130464
0.000186192
0.000109538
-6.01939e-05
-5.40982e-05
-7.55486e-05
-1.45676e-05
-4.45523e-06
4.22097e-05
5.65543e-05
8.24474e-05
9.19059e-05
0.000113426
0.000116418
0.00011473
0.000114739
0.000103783
9.66759e-05
7.57143e-05
6.27864e-05
4.12394e-05
4.32558e-05
7.56509e-05
5.22573e-06
2.96925e-05
2.19775e-05
6.17061e-05
5.81509e-05
8.6358e-05
8.80868e-05
0.000103672
0.000107299
8.31855e-05
8.73946e-05
8.81953e-05
9.21199e-05
8.91659e-05
9.48381e-05
9.21135e-05
0.000104276
9.69673e-05
0.000106617
6.41094e-05
-2.50332e-05
-1.67226e-05
-4.071e-05
6.17764e-07
3.65081e-06
3.79881e-05
4.74342e-05
6.77484e-05
7.4857e-05
8.54078e-05
8.68405e-05
8.53425e-05
8.49653e-05
7.64871e-05
7.06862e-05
5.506e-05
4.31341e-05
2.74305e-05
1.73596e-05
3.1454e-05
9.47002e-06
4.00668e-05
3.13841e-05
5.94037e-05
5.16055e-05
7.02361e-05
6.8716e-05
7.95363e-05
8.10711e-05
7.02807e-05
7.2802e-05
7.34085e-05
7.56613e-05
7.26156e-05
7.54415e-05
7.30565e-05
7.76306e-05
7.39715e-05
7.04282e-05
4.93724e-05
-4.97106e-06
1.09621e-06
-1.89712e-05
1.01133e-05
1.1093e-05
3.66577e-05
4.31933e-05
5.87058e-05
6.34942e-05
6.95643e-05
6.99602e-05
6.89627e-05
6.83747e-05
6.19504e-05
5.75499e-05
4.63328e-05
3.62336e-05
2.59367e-05
1.45349e-05
2.31081e-05
1.45142e-05
4.11511e-05
3.32935e-05
5.40604e-05
4.66172e-05
5.9782e-05
5.78241e-05
6.57161e-05
6.62465e-05
6.18287e-05
6.26373e-05
6.31395e-05
6.40003e-05
6.08639e-05
6.17404e-05
5.92833e-05
5.93768e-05
5.84122e-05
5.05341e-05
4.22341e-05
6.71228e-06
1.29016e-05
-2.37485e-06
1.87879e-05
1.89082e-05
3.75198e-05
4.21189e-05
5.35573e-05
5.63891e-05
6.05662e-05
5.98406e-05
5.95102e-05
5.86499e-05
5.35465e-05
5.03535e-05
4.31852e-05
3.43063e-05
2.89675e-05
1.7997e-05
2.51253e-05
1.86627e-05
3.99093e-05
3.24199e-05
4.86802e-05
4.31322e-05
5.27476e-05
5.1593e-05
5.75649e-05
5.73728e-05
5.65976e-05
5.57149e-05
5.64737e-05
5.63279e-05
5.29528e-05
5.28137e-05
5.02909e-05
4.74304e-05
4.8494e-05
3.92158e-05
3.82895e-05
1.42479e-05
2.19641e-05
1.04386e-05
2.63499e-05
2.62436e-05
3.91712e-05
4.26582e-05
5.08477e-05
5.1965e-05
5.53887e-05
5.34246e-05
5.39105e-05
5.2574e-05
4.8312e-05
4.64943e-05
4.1559e-05
3.37819e-05
3.30403e-05
2.15199e-05
2.96406e-05
2.11951e-05
3.86049e-05
3.1531e-05
4.43118e-05
4.10408e-05
4.80887e-05
4.819e-05
5.26008e-05
5.1841e-05
5.3263e-05
5.115e-05
5.25595e-05
5.1208e-05
4.80111e-05
4.74492e-05
4.53124e-05
4.00229e-05
4.29526e-05
3.27378e-05
3.70445e-05
1.94713e-05
2.89788e-05
1.92147e-05
3.21587e-05
3.20718e-05
4.0823e-05
4.39226e-05
4.92081e-05
4.93314e-05
5.25693e-05
4.86705e-05
5.06521e-05
4.87858e-05
4.46383e-05
4.3898e-05
4.05694e-05
3.30115e-05
3.60505e-05
2.38198e-05
3.34954e-05
2.28916e-05
3.82547e-05
3.08563e-05
4.17196e-05
4.0343e-05
4.47329e-05
4.65795e-05
4.97097e-05
4.81541e-05
5.19867e-05
4.77809e-05
5.0489e-05
4.78945e-05
4.43003e-05
4.50549e-05
4.23177e-05
3.54669e-05
4.15532e-05
2.85999e-05
3.81097e-05
2.19665e-05
3.41796e-05
2.52022e-05
3.57724e-05
3.67736e-05
4.17331e-05
4.53933e-05
4.81475e-05
4.70621e-05
5.05286e-05
4.51496e-05
4.89978e-05
4.58053e-05
4.19903e-05
4.24634e-05
4.01043e-05
3.10773e-05
3.83458e-05
2.4109e-05
3.67194e-05
2.33719e-05
3.90551e-05
2.98697e-05
4.01028e-05
4.01884e-05
4.25094e-05
4.61714e-05
4.73502e-05
4.56526e-05
5.17552e-05
4.41315e-05
4.97338e-05
4.64108e-05
4.12767e-05
4.3524e-05
4.09672e-05
3.22204e-05
4.18687e-05
2.58858e-05
4.00431e-05
2.30772e-05
3.8084e-05
2.81818e-05
3.84071e-05
4.03074e-05
4.09961e-05
4.68957e-05
4.80145e-05
4.49693e-05
4.99135e-05
4.14855e-05
4.82649e-05
4.3798e-05
3.87468e-05
4.23287e-05
3.94244e-05
2.844e-05
4.09059e-05
2.19534e-05
4.00354e-05
2.18289e-05
4.00297e-05
2.86498e-05
3.85696e-05
4.09099e-05
4.0056e-05
4.63728e-05
4.55616e-05
4.25467e-05
5.17031e-05
4.1198e-05
5.00254e-05
4.45181e-05
3.84537e-05
4.36927e-05
4.00937e-05
2.84965e-05
4.34978e-05
2.28041e-05
4.27994e-05
2.22717e-05
4.1595e-05
2.86276e-05
3.93134e-05
4.26307e-05
4.00218e-05
4.85142e-05
4.68354e-05
4.27936e-05
5.04437e-05
3.64137e-05
4.85773e-05
4.26632e-05
3.38228e-05
4.33197e-05
3.86573e-05
2.4093e-05
4.33682e-05
1.80004e-05
4.30559e-05
1.8622e-05
4.16185e-05
2.59054e-05
3.67369e-05
4.23689e-05
3.60303e-05
4.70743e-05
4.42341e-05
3.79773e-05
5.21225e-05
3.69817e-05
5.12825e-05
4.28554e-05
3.45321e-05
4.52513e-05
3.90748e-05
2.34915e-05
4.66504e-05
1.7737e-05
4.66334e-05
1.8591e-05
4.47675e-05
2.63613e-05
3.90834e-05
4.44005e-05
3.71039e-05
5.04137e-05
4.52447e-05
3.95047e-05
5.09742e-05
3.00024e-05
5.05318e-05
4.03736e-05
2.72311e-05
4.58597e-05
3.74479e-05
1.6657e-05
4.69583e-05
1.07917e-05
4.69504e-05
1.22247e-05
4.3933e-05
2.03858e-05
3.41728e-05
4.33591e-05
3.04837e-05
4.88217e-05
4.13461e-05
3.20698e-05
5.35788e-05
3.05815e-05
5.37525e-05
4.06665e-05
2.75321e-05
4.83893e-05
3.7441e-05
1.63415e-05
5.03609e-05
1.04046e-05
5.05932e-05
1.21539e-05
4.7557e-05
2.05713e-05
3.75503e-05
4.64144e-05
3.14647e-05
5.2725e-05
4.26132e-05
3.34105e-05
5.29046e-05
1.81617e-05
5.5622e-05
3.79626e-05
1.44806e-05
5.21431e-05
3.57661e-05
2.2443e-06
5.36996e-05
-2.8962e-06
5.35863e-05
-6.04916e-07
4.84801e-05
8.51454e-06
2.96865e-05
4.59463e-05
1.93274e-05
5.28983e-05
3.77273e-05
2.12194e-05
5.4955e-05
1.98165e-05
5.83052e-05
3.64079e-05
1.5954e-05
5.44966e-05
3.3948e-05
3.6419e-06
5.5659e-05
-2.09376e-06
5.55525e-05
3.55417e-07
5.06622e-05
9.38768e-06
3.37978e-05
4.75058e-05
2.09964e-05
5.60795e-05
3.71056e-05
2.33932e-05
5.81864e-05
-4.63621e-06
6.85545e-05
3.1289e-05
-1.27475e-05
6.8445e-05
3.04658e-05
-2.71803e-05
6.68132e-05
-2.99876e-05
6.55361e-05
-2.65813e-05
5.7438e-05
-1.68484e-05
2.16119e-05
5.1734e-05
-3.02677e-06
6.33766e-05
2.9138e-05
-1.22343e-06
-0.0134275
-0.0128777
-0.0124269
-0.0120977
-0.0119036
-0.0118723
-0.0120221
-0.0123312
-0.0127893
-0.0133615
-0.0140126
-0.0146752
-0.0152685
-0.0156984
-0.0158974
-0.0158728
-0.0156389
-0.0152147
-0.0146573
-0.0140388
0.00197548
0.00203187
0.00196358
0.00182714
0.00166762
0.00154977
0.00141334
0.00123864
0.00100452
0.000720844
0.000376092
1.01072e-05
-0.000301819
-0.000475476
-0.000432838
-0.000123361
0.00035626
0.000892917
0.00138758
0.00176223
-0.00274917
-0.00243497
-0.00221127
-0.00206944
-0.00204895
-0.00215129
-0.00234431
-0.00257978
-0.00291041
-0.00330426
-0.00380181
-0.00432448
-0.00477058
-0.00501609
-0.00505145
-0.00487711
-0.00452484
-0.00405629
-0.00357213
-0.00312787
0.00335462
0.00343594
0.00345824
0.00346437
0.00344399
0.0034025
0.00327838
0.00312491
0.00284857
0.00251466
0.00200199
0.00144926
0.00101874
0.000877819
0.00112191
0.00156253
0.00210564
0.00259159
0.00296065
0.00320986
-0.00030191
-0.000138715
-6.36886e-05
-2.32032e-05
-8.0929e-05
-0.000119276
-0.000226887
-0.000337847
-0.000601827
-0.000948948
-0.0015844
-0.0022952
-0.00282906
-0.0030425
-0.00291968
-0.00252931
-0.00196893
-0.00140247
-0.000917112
-0.000549007
0.00244895
0.00257073
0.00262906
0.00267779
0.00265686
0.00262495
0.00249479
0.00235914
0.00205034
0.00166551
0.000915449
0.000188137
-0.000246272
-0.00019972
0.000194841
0.000743198
0.00127548
0.00170952
0.00204251
0.00228549
0.000275232
0.000335728
0.000345027
0.000349674
0.000318896
0.000328029
0.000260788
0.00020062
-5.31851e-05
-0.00042669
-0.00128791
-0.00211138
-0.002536
-0.00245728
-0.00197269
-0.0013513
-0.000768506
-0.000330369
-2.33897e-05
0.000169853
0.00156415
0.00165415
0.00169515
0.00173295
0.00169709
0.00166804
0.00155294
0.00143364
0.00114033
0.000723317
-0.000188962
-0.000937781
-0.00115569
-0.000826165
-0.000257521
0.000279615
0.000733583
0.00105139
0.00128642
0.00145065
0.00035931
0.000382354
0.00037344
0.000378012
0.000363037
0.000378999
0.000330059
0.000283101
6.6976e-05
-0.000313417
-0.00125681
-0.00202779
-0.00215567
-0.00173271
-0.00109292
-0.000576316
-0.000173654
6.95808e-05
0.000230395
0.000317835
0.000954603
0.001008
0.00102873
0.00104642
0.00101501
0.000989537
0.00090133
0.000806507
0.000578741
0.000205196
-0.000668328
-0.00127124
-0.00117451
-0.000725993
-0.000175034
0.000201042
0.000493254
0.00066525
0.000799763
0.000888984
0.000322129
0.000334793
0.000326404
0.000335115
0.000323758
0.000337185
0.0003019
0.00027875
0.000129588
-0.000137193
-0.000940776
-0.00155155
-0.00137529
-0.000946345
-0.000454443
-0.000161708
6.45968e-05
0.000176416
0.000260991
0.000301303
0.000579109
0.000608088
0.00061594
0.000623581
0.000597612
0.000578331
0.000515231
0.000455194
0.000308884
8.32667e-05
-0.000574421
-0.000902111
-0.000684246
-0.000316601
3.46123e-05
0.000210059
0.000359416
0.00042937
0.000500446
0.000543358
0.000261545
0.000272285
0.000268465
0.000278291
0.000269009
0.000282698
0.000260637
0.000276635
0.000204146
0.000169333
-0.000372187
-0.000786468
-0.000613699
-0.000386906
-0.000117183
-3.16749e-07
0.000120875
0.000168879
0.000222044
0.000245103
0.000359929
0.000375627
0.000377081
0.00038068
0.000359046
0.000345502
0.000299958
0.000270714
0.000195809
0.000143952
-0.000190406
-0.000319714
-0.000181951
-2.39265e-05
0.000137111
0.000180775
0.000253898
0.000276453
0.000318321
0.000339145
0.000205071
0.000215265
0.000214856
0.000224024
0.00021664
0.000230287
0.000218507
0.000260402
0.000252775
0.00042263
0.000205514
-0.000226423
-0.000192162
-0.000160542
-3.6267e-05
1.03702e-05
9.64749e-05
0.000126849
0.000170911
0.000189086
0.000235601
0.000244729
0.000243704
0.000245427
0.000227406
0.000217042
0.000181122
0.00016477
0.000119401
0.000186756
0.000272763
-2.98193e-05
-4.01408e-05
-2.44811e-05
7.09414e-05
9.09946e-05
0.000156352
0.000173823
0.00020812
0.000221306
0.000160884
0.00016957
0.000170527
0.000177787
0.000171646
0.000181491
0.000172543
0.000199124
0.000179399
0.000239346
0.000132943
-8.71428e-05
-6.80305e-05
-9.09911e-05
-6.0372e-06
8.98667e-06
7.37187e-05
9.48433e-05
0.000131669
0.000146345
0.000166451
0.000171739
0.000170029
0.000170735
0.000156164
0.000147582
0.000119741
0.000103944
7.31849e-05
7.37962e-05
9.76641e-05
-4.92045e-06
3.139e-05
2.08957e-05
7.90039e-05
7.71522e-05
0.000119337
0.000125047
0.000149213
0.000156521
0.000129476
0.000135795
0.000136817
0.000141751
0.000136315
0.000142034
0.000135312
0.000147654
0.000134366
0.000142701
8.62704e-05
-3.30185e-05
-1.64952e-05
-4.63634e-05
1.18025e-05
1.65822e-05
6.45119e-05
7.81667e-05
0.00010683
0.000117467
0.000127512
0.000130395
0.000128794
0.000128842
0.000117419
0.000110417
8.95928e-05
7.48166e-05
5.27321e-05
3.86783e-05
4.86731e-05
1.01723e-05
5.07267e-05
3.71691e-05
7.8399e-05
6.99141e-05
9.87102e-05
9.92509e-05
0.000116455
0.000120316
0.000108425
0.000112186
0.00011286
0.000115664
0.000110417
0.000112999
0.000107458
0.000111063
0.000103566
9.63292e-05
6.86851e-05
-3.89339e-06
8.74945e-06
-1.72029e-05
2.42103e-05
2.54087e-05
6.10343e-05
7.01076e-05
9.1835e-05
9.88473e-05
0.000105045
0.000106173
0.00010508
0.000104645
9.57888e-05
9.04059e-05
7.53263e-05
6.24546e-05
4.81013e-05
3.20221e-05
3.91675e-05
2.08745e-05
5.58898e-05
4.32817e-05
7.3905e-05
6.51249e-05
8.57883e-05
8.49652e-05
9.76065e-05
9.95238e-05
9.49887e-05
9.6254e-05
9.67959e-05
9.77977e-05
9.26572e-05
9.31133e-05
8.81196e-05
8.65257e-05
8.33913e-05
7.11671e-05
6.04288e-05
1.31508e-05
2.51562e-05
4.90093e-06
3.53641e-05
3.51292e-05
6.10987e-05
6.73001e-05
8.32828e-05
8.73682e-05
9.20963e-05
9.14073e-05
9.11027e-05
9.01073e-05
8.29006e-05
7.89439e-05
6.90018e-05
5.73909e-05
4.99774e-05
3.42923e-05
4.18583e-05
2.84882e-05
5.68049e-05
4.50782e-05
6.90077e-05
6.22624e-05
7.74163e-05
7.70816e-05
8.65631e-05
8.70503e-05
8.68002e-05
8.56216e-05
8.65667e-05
8.61921e-05
8.09233e-05
8.03662e-05
7.57932e-05
7.07369e-05
7.1071e-05
5.72375e-05
5.65297e-05
2.42032e-05
3.74791e-05
2.17845e-05
4.49232e-05
4.43973e-05
6.25654e-05
6.72494e-05
7.86782e-05
8.03011e-05
8.46206e-05
8.19772e-05
8.27683e-05
8.09587e-05
7.47809e-05
7.25047e-05
6.54982e-05
5.49448e-05
5.38913e-05
3.74966e-05
4.76531e-05
3.32388e-05
5.69825e-05
4.61008e-05
6.50612e-05
6.10419e-05
7.20792e-05
7.30561e-05
7.99539e-05
7.93165e-05
8.17634e-05
7.86057e-05
8.05733e-05
7.8568e-05
7.35468e-05
7.2757e-05
6.89612e-05
6.09778e-05
6.45776e-05
4.94468e-05
5.60453e-05
3.17727e-05
4.69505e-05
3.33741e-05
5.22291e-05
5.19252e-05
6.42369e-05
6.8543e-05
7.59659e-05
7.60377e-05
8.05579e-05
7.50998e-05
7.79473e-05
7.52076e-05
6.91434e-05
6.83694e-05
6.34059e-05
5.27903e-05
5.71891e-05
3.9584e-05
5.28692e-05
3.63253e-05
5.79342e-05
4.67871e-05
6.29317e-05
6.13498e-05
6.83145e-05
7.14191e-05
7.61345e-05
7.41862e-05
7.9662e-05
7.34448e-05
7.74005e-05
7.36501e-05
6.81112e-05
6.92051e-05
6.49383e-05
5.48221e-05
6.32522e-05
4.44438e-05
5.83019e-05
3.55548e-05
5.40582e-05
4.11769e-05
5.6836e-05
5.80839e-05
6.50838e-05
7.03662e-05
7.42605e-05
7.25828e-05
7.7869e-05
6.98998e-05
7.55259e-05
7.09006e-05
6.50066e-05
6.61414e-05
6.23203e-05
4.95516e-05
6.00826e-05
3.93488e-05
5.7473e-05
3.74123e-05
5.99916e-05
4.65602e-05
6.1682e-05
6.21554e-05
6.56944e-05
7.13209e-05
7.31386e-05
7.05773e-05
7.91339e-05
6.81452e-05
7.62081e-05
7.11783e-05
6.36349e-05
6.71477e-05
6.30454e-05
5.01708e-05
6.41834e-05
4.08171e-05
6.16087e-05
3.70794e-05
5.95056e-05
4.49818e-05
6.00866e-05
6.28231e-05
6.39254e-05
7.23893e-05
7.37283e-05
6.94087e-05
7.70758e-05
6.45728e-05
7.45682e-05
6.79609e-05
6.02491e-05
6.58371e-05
6.12051e-05
4.54345e-05
6.35602e-05
3.60741e-05
6.22586e-05
3.5579e-05
6.21175e-05
4.54295e-05
6.02383e-05
6.37846e-05
6.2538e-05
7.19989e-05
7.07971e-05
6.62314e-05
7.90872e-05
6.35311e-05
7.65801e-05
6.84413e-05
5.92319e-05
6.74378e-05
6.17703e-05
4.47165e-05
6.68222e-05
3.63061e-05
6.58934e-05
3.5704e-05
6.43913e-05
4.52783e-05
6.11013e-05
6.61137e-05
6.21453e-05
7.46527e-05
7.1998e-05
6.59394e-05
7.7754e-05
5.74498e-05
7.51504e-05
6.60704e-05
5.33567e-05
6.72506e-05
6.00152e-05
3.90169e-05
6.72076e-05
3.02338e-05
6.68366e-05
3.11073e-05
6.48588e-05
4.18248e-05
5.80975e-05
6.6083e-05
5.71687e-05
7.33156e-05
6.88096e-05
5.9952e-05
7.97387e-05
5.71054e-05
7.84211e-05
6.59454e-05
5.31573e-05
6.97442e-05
6.02655e-05
3.72437e-05
7.14102e-05
2.88679e-05
7.14813e-05
3.02395e-05
6.88631e-05
4.16976e-05
6.04953e-05
6.8688e-05
5.76416e-05
7.73635e-05
6.95892e-05
6.08007e-05
7.85917e-05
4.8318e-05
7.79852e-05
6.2817e-05
4.40013e-05
7.09172e-05
5.82222e-05
2.84609e-05
7.2419e-05
1.99764e-05
7.25529e-05
2.21416e-05
6.83942e-05
3.41585e-05
5.47319e-05
6.77604e-05
4.9408e-05
7.59436e-05
6.47886e-05
5.16233e-05
8.16924e-05
4.7575e-05
8.21077e-05
6.2692e-05
4.28526e-05
7.44226e-05
5.78873e-05
2.64523e-05
7.69731e-05
1.79351e-05
7.74195e-05
2.06266e-05
7.29765e-05
3.30939e-05
5.80193e-05
7.15038e-05
4.92893e-05
8.07672e-05
6.56553e-05
5.18467e-05
8.11115e-05
3.24522e-05
8.48369e-05
5.92052e-05
2.69473e-05
7.94446e-05
5.56797e-05
9.21894e-06
8.14977e-05
1.60555e-06
8.15324e-05
5.01369e-06
7.44718e-05
1.83371e-05
4.87713e-05
7.11828e-05
3.45721e-05
8.14124e-05
5.95331e-05
3.70889e-05
8.36985e-05
3.25589e-05
8.86831e-05
5.69144e-05
2.66286e-05
8.31661e-05
5.32152e-05
8.60732e-06
8.46713e-05
4.33379e-07
8.46861e-05
4.14406e-06
7.7564e-05
1.74929e-05
5.26868e-05
7.33451e-05
3.47952e-05
8.56482e-05
5.81329e-05
3.786e-05
8.72491e-05
4.81527e-06
0.00010066
5.07988e-05
-5.85886e-06
9.94964e-05
4.90792e-05
-2.62966e-05
9.77052e-05
-3.12331e-05
9.63588e-05
-2.64162e-05
8.5334e-05
-1.23258e-05
3.8735e-05
7.81129e-05
7.5815e-06
9.40134e-05
4.85642e-05
1.0064e-05
-0.0148309
-0.0142047
-0.0136892
-0.0133122
-0.0130955
-0.0130748
-0.0132587
-0.0136249
-0.0141601
-0.0148221
-0.0155676
-0.0163186
-0.0169829
-0.0174573
-0.0176696
-0.0176277
-0.0173493
-0.0168603
-0.0162255
-0.0155243
0.0014685
0.00157645
0.00154469
0.00142877
0.00127828
0.00115217
0.000975328
0.000743032
0.000433308
6.22715e-05
-0.000376088
-0.000830044
-0.00120957
-0.00141813
-0.00136724
-0.00101415
-0.000465972
0.000154211
0.000734845
0.00118874
-0.00309847
-0.00273604
-0.00248955
-0.00234477
-0.0023488
-0.00248496
-0.00272597