/*--------------------------------*- C++ -*----------------------------------*\
| =========                 |                                                 |
| \\      /  F ield         | OpenFOAM: The Open Source CFD Toolbox           |
|  \\    /   O peration     | Version:  2.4.0                                 |
|   \\  /    A nd           | Web:      www.OpenFOAM.org                      |
|    \\/     M anipulation  |                                                 |
\*---------------------------------------------------------------------------*/
FoamFile
{
    version     2.0;
    format      ascii;
    class       volScalarField;
    location    "140";
    object      epsilon;
}
// * * * * * * * * * * * * * * * * * * * * * * * * * * * * * * * * * * * * * //

dimensions      [0 2 -3 0 0 0 0];

internalField   nonuniform List<scalar> 
283312
(
2.71209e-05
2.42745e-05
2.28059e-05
2.30524e-05
2.48294e-05
2.7602e-05
3.07223e-05
3.36979e-05
3.62887e-05
3.83958e-05
3.99571e-05
4.09277e-05
4.13086e-05
4.11684e-05
4.05963e-05
3.96346e-05
3.82544e-05
3.63245e-05
3.36986e-05
3.0439e-05
2.58416e-05
2.85419e-05
3.20983e-05
3.55568e-05
3.82575e-05
4.00258e-05
4.10626e-05
4.16607e-05
4.19751e-05
4.1967e-05
4.14748e-05
4.04217e-05
3.88981e-05
3.70324e-05
3.48616e-05
3.23369e-05
2.95564e-05
2.68783e-05
2.49165e-05
2.43491e-05
3.51738e-05
3.67289e-05
3.78869e-05
3.86723e-05
3.91657e-05
3.94246e-05
3.95417e-05
3.95937e-05
3.95411e-05
3.91439e-05
3.81502e-05
3.65303e-05
3.44405e-05
3.21926e-05
3.01834e-05
2.8798e-05
2.83514e-05
2.90088e-05
3.06451e-05
3.27982e-05
3.5533e-05
3.64057e-05
3.69245e-05
3.71802e-05
3.72806e-05
3.73369e-05
3.74266e-05
3.7563e-05
3.77058e-05
3.77098e-05
3.73419e-05
3.60874e-05
3.34913e-05
2.98933e-05
2.66962e-05
2.55239e-05
2.66739e-05
2.92186e-05
3.19046e-05
3.4021e-05
3.56812e-05
3.6055e-05
3.6224e-05
3.62961e-05
3.63562e-05
3.64298e-05
3.65463e-05
3.67067e-05
3.69761e-05
3.76845e-05
3.87619e-05
3.86417e-05
3.61276e-05
3.24486e-05
2.98373e-05
2.92425e-05
3.03427e-05
3.21058e-05
3.37353e-05
3.49247e-05
3.5526e-05
3.56517e-05
3.56938e-05
3.57086e-05
3.57438e-05
3.58101e-05
3.5931e-05
3.61009e-05
3.6445e-05
3.81201e-05
4.16416e-05
4.39865e-05
4.16327e-05
3.65788e-05
3.29204e-05
3.18268e-05
3.24298e-05
3.35606e-05
3.45534e-05
3.51937e-05
3.5424e-05
3.53675e-05
3.53538e-05
3.5371e-05
3.54221e-05
3.54953e-05
3.56103e-05
3.57701e-05
3.61094e-05
3.77048e-05
4.24479e-05
4.90799e-05
5.29025e-05
5.01674e-05
4.44416e-05
3.99284e-05
3.73914e-05
3.62037e-05
3.5711e-05
3.55067e-05
3.52266e-05
3.51658e-05
3.51542e-05
3.5167e-05
3.52044e-05
3.52643e-05
3.53595e-05
3.55033e-05
3.57597e-05
3.54153e-05
3.62708e-05
3.91539e-05
4.22837e-05
4.34992e-05
4.23223e-05
4.00312e-05
3.78959e-05
3.6475e-05
3.57181e-05
3.53669e-05
3.50369e-05
3.50192e-05
3.50255e-05
3.50477e-05
3.50843e-05
3.51382e-05
3.52145e-05
3.53418e-05
3.55503e-05
3.40771e-05
3.15456e-05
2.88666e-05
2.95265e-05
3.33427e-05
3.59484e-05
3.64575e-05
3.60155e-05
3.55256e-05
3.52312e-05
3.50911e-05
3.49429e-05
3.49442e-05
3.4953e-05
3.497e-05
3.49966e-05
3.50388e-05
3.50979e-05
3.52073e-05
3.53793e-05
3.37267e-05
3.12248e-05
2.75245e-05
2.66302e-05
2.94692e-05
3.25227e-05
3.41552e-05
3.47554e-05
3.49211e-05
3.49502e-05
3.49469e-05
3.48925e-05
3.48986e-05
3.49085e-05
3.49245e-05
3.49462e-05
3.49799e-05
3.50244e-05
3.51131e-05
3.5245e-05
3.34555e-05
3.11318e-05
2.71686e-05
2.61879e-05
2.87501e-05
3.1699e-05
3.35408e-05
3.4407e-05
3.47442e-05
3.48545e-05
3.48843e-05
3.48667e-05
3.48722e-05
3.48798e-05
3.48916e-05
3.49076e-05
3.49328e-05
3.49676e-05
3.50375e-05
3.51543e-05
3.32445e-05
3.15175e-05
2.80691e-05
2.72675e-05
2.95106e-05
3.20414e-05
3.36477e-05
3.44214e-05
3.47281e-05
3.483e-05
3.48585e-05
3.48495e-05
3.48546e-05
3.48612e-05
3.4871e-05
3.48836e-05
3.49022e-05
3.49282e-05
3.49785e-05
3.50726e-05
3.32846e-05
3.10793e-05
2.70448e-05
2.68306e-05
2.95142e-05
3.21147e-05
3.36858e-05
3.44266e-05
3.47174e-05
3.48139e-05
3.48414e-05
3.4838e-05
3.48423e-05
3.48474e-05
3.48548e-05
3.48643e-05
3.48779e-05
3.48974e-05
3.49327e-05
3.50431e-05
3.36524e-05
3.24391e-05
2.87228e-05
2.80876e-05
3.01989e-05
3.24074e-05
3.3786e-05
3.44504e-05
3.47153e-05
3.48045e-05
3.48304e-05
3.48301e-05
3.48335e-05
3.48376e-05
3.48434e-05
3.48509e-05
3.4861e-05
3.48755e-05
3.48996e-05
3.49946e-05
3.32439e-05
3.05891e-05
2.70818e-05
2.75901e-05
3.02249e-05
3.25101e-05
3.38496e-05
3.44753e-05
3.47197e-05
3.48006e-05
3.48236e-05
3.48239e-05
3.48262e-05
3.48293e-05
3.48338e-05
3.48396e-05
3.48469e-05
3.48555e-05
3.48675e-05
3.48756e-05
3.16473e-05
2.59176e-05
2.37545e-05
2.60859e-05
2.97538e-05
3.24872e-05
3.39201e-05
3.45234e-05
3.47376e-05
3.48027e-05
3.48196e-05
3.48198e-05
3.48205e-05
3.48226e-05
3.48261e-05
3.48308e-05
3.48368e-05
3.48436e-05
3.48522e-05
3.48571e-05
3.45715e-05
3.43613e-05
3.4424e-05
3.45946e-05
3.47083e-05
3.47526e-05
3.4791e-05
3.48141e-05
3.48218e-05
3.4822e-05
3.48205e-05
3.48146e-05
3.48149e-05
3.48164e-05
3.48192e-05
3.4823e-05
3.48278e-05
3.4833e-05
3.48396e-05
3.48463e-05
3.48426e-05
3.48369e-05
3.4837e-05
3.48425e-05
3.48444e-05
3.48412e-05
3.4835e-05
3.48285e-05
3.48228e-05
3.48185e-05
3.48158e-05
3.48101e-05
3.481e-05
3.4811e-05
3.48132e-05
3.48163e-05
3.48203e-05
3.48245e-05
3.48293e-05
3.4833e-05
3.48361e-05
3.48349e-05
3.48347e-05
3.48372e-05
3.48368e-05
3.4834e-05
3.48289e-05
3.48233e-05
3.48182e-05
3.48141e-05
3.48114e-05
3.48056e-05
3.48053e-05
3.4806e-05
3.48077e-05
3.48102e-05
3.48136e-05
3.48172e-05
3.48215e-05
3.48251e-05
3.48279e-05
3.48277e-05
3.48271e-05
3.48279e-05
3.48274e-05
3.48254e-05
3.48215e-05
3.4817e-05
3.48128e-05
3.48094e-05
3.48069e-05
3.48015e-05
3.48011e-05
3.48015e-05
3.48028e-05
3.48048e-05
3.48076e-05
3.48106e-05
3.48141e-05
3.48169e-05
3.48194e-05
3.48198e-05
3.48203e-05
3.48214e-05
3.48211e-05
3.48192e-05
3.4816e-05
3.48122e-05
3.48084e-05
3.48053e-05
3.4803e-05
3.47977e-05
3.47971e-05
3.47973e-05
3.47983e-05
3.47999e-05
3.48023e-05
3.4805e-05
3.48081e-05
3.48107e-05
3.48131e-05
3.48138e-05
3.48142e-05
3.48147e-05
3.48142e-05
3.48128e-05
3.48102e-05
3.4807e-05
3.48039e-05
3.48011e-05
3.4799e-05
3.47941e-05
3.47934e-05
3.47934e-05
3.47941e-05
3.47955e-05
3.47974e-05
3.47997e-05
3.48024e-05
3.48046e-05
3.48068e-05
3.48077e-05
3.48085e-05
3.48093e-05
3.48091e-05
3.48078e-05
3.48055e-05
3.48028e-05
3.48e-05
3.47975e-05
3.47955e-05
3.47907e-05
3.479e-05
3.47898e-05
3.47904e-05
3.47915e-05
3.47931e-05
3.47951e-05
3.47975e-05
3.47996e-05
3.48017e-05
3.48027e-05
3.48034e-05
3.4804e-05
3.48037e-05
3.48027e-05
3.48008e-05
3.47986e-05
3.47961e-05
3.47939e-05
3.4792e-05
3.47876e-05
3.47868e-05
3.47866e-05
3.47869e-05
3.47878e-05
3.47892e-05
3.47909e-05
3.4793e-05
3.47949e-05
3.47967e-05
3.47979e-05
3.47988e-05
3.47994e-05
3.47993e-05
3.47985e-05
3.47969e-05
3.47949e-05
3.47927e-05
3.47907e-05
3.47889e-05
3.47848e-05
3.4784e-05
3.47836e-05
3.47838e-05
3.47845e-05
3.47857e-05
3.47872e-05
3.47891e-05
3.47908e-05
3.47925e-05
3.47937e-05
3.47945e-05
3.47951e-05
3.47951e-05
3.47944e-05
3.4793e-05
3.47913e-05
3.47894e-05
3.47876e-05
3.4786e-05
3.47821e-05
3.47813e-05
3.47809e-05
3.4781e-05
3.47816e-05
3.47826e-05
3.47839e-05
3.47855e-05
3.47871e-05
3.47887e-05
3.47898e-05
3.47907e-05
3.47914e-05
3.47914e-05
3.47909e-05
3.47897e-05
3.47882e-05
3.47865e-05
3.47848e-05
3.47833e-05
3.47798e-05
3.47789e-05
3.47785e-05
3.47785e-05
3.47789e-05
3.47798e-05
3.47809e-05
3.47824e-05
3.47838e-05
3.47853e-05
3.47864e-05
3.47873e-05
3.47879e-05
3.4788e-05
3.47876e-05
3.47866e-05
3.47853e-05
3.47838e-05
3.47823e-05
3.47809e-05
3.47776e-05
3.47768e-05
3.47763e-05
3.47762e-05
3.47766e-05
3.47773e-05
3.47783e-05
3.47796e-05
3.47809e-05
3.47823e-05
3.47834e-05
3.47843e-05
3.47849e-05
3.4785e-05
3.47847e-05
3.47839e-05
3.47827e-05
3.47814e-05
3.478e-05
3.47787e-05
3.47757e-05
3.47749e-05
3.47744e-05
3.47742e-05
3.47745e-05
3.47751e-05
3.47759e-05
3.47771e-05
3.47783e-05
3.47796e-05
3.47807e-05
3.47816e-05
3.47821e-05
3.47823e-05
3.47821e-05
3.47814e-05
3.47804e-05
3.47792e-05
3.47779e-05
3.47767e-05
3.47739e-05
3.47731e-05
3.47726e-05
3.47724e-05
3.47726e-05
3.47731e-05
3.47739e-05
3.47749e-05
3.4776e-05
3.47773e-05
3.47783e-05
3.47791e-05
3.47797e-05
3.478e-05
3.47798e-05
3.47792e-05
3.47783e-05
3.47772e-05
3.47761e-05
3.47749e-05
3.47724e-05
3.47716e-05
3.47711e-05
3.47709e-05
3.4771e-05
3.47714e-05
3.47721e-05
3.47731e-05
3.47741e-05
3.47752e-05
3.47762e-05
3.47771e-05
3.47777e-05
3.47779e-05
3.47778e-05
3.47773e-05
3.47765e-05
3.47755e-05
3.47744e-05
3.47734e-05
3.47711e-05
3.47703e-05
3.47698e-05
3.47695e-05
3.47695e-05
3.47699e-05
3.47705e-05
3.47714e-05
3.47723e-05
3.47734e-05
3.47744e-05
3.47752e-05
3.47758e-05
3.47761e-05
3.47761e-05
3.47756e-05
3.47749e-05
3.4774e-05
3.4773e-05
3.4772e-05
3.47699e-05
3.47692e-05
3.47687e-05
3.47683e-05
3.47683e-05
3.47686e-05
3.47692e-05
3.477e-05
3.47709e-05
3.4772e-05
3.47729e-05
3.47737e-05
3.47743e-05
3.47746e-05
3.47746e-05
3.47742e-05
3.47736e-05
3.47728e-05
3.47718e-05
3.47708e-05
3.47689e-05
3.47682e-05
3.47676e-05
3.47673e-05
3.47673e-05
3.47675e-05
3.4768e-05
3.47688e-05
3.47696e-05
3.47706e-05
3.47715e-05
3.47723e-05
3.47729e-05
3.47733e-05
3.47733e-05
3.4773e-05
3.47724e-05
3.47716e-05
3.47707e-05
3.47698e-05
3.47682e-05
3.47675e-05
3.47669e-05
3.47665e-05
3.47665e-05
3.47667e-05
3.47671e-05
3.47678e-05
3.47687e-05
3.47696e-05
3.47705e-05
3.47713e-05
3.47719e-05
3.47723e-05
3.47723e-05
3.4772e-05
3.47715e-05
3.47708e-05
3.47699e-05
3.4769e-05
3.47675e-05
3.47668e-05
3.47662e-05
3.47658e-05
3.47657e-05
3.47659e-05
3.47663e-05
3.4767e-05
3.47678e-05
3.47688e-05
3.47696e-05
3.47704e-05
3.4771e-05
3.47713e-05
3.47715e-05
3.47712e-05
3.47707e-05
3.477e-05
3.47691e-05
3.47683e-05
3.47671e-05
3.47664e-05
3.47658e-05
3.47654e-05
3.47653e-05
3.47655e-05
3.47658e-05
3.47665e-05
3.47672e-05
3.47682e-05
3.4769e-05
3.47698e-05
3.47704e-05
3.47708e-05
3.4771e-05
3.47707e-05
3.47702e-05
3.47696e-05
3.47687e-05
3.47679e-05
3.47668e-05
3.47661e-05
3.47656e-05
3.47651e-05
3.4765e-05
3.47652e-05
3.47655e-05
3.47662e-05
3.47669e-05
3.47678e-05
3.47686e-05
3.47694e-05
3.477e-05
3.47704e-05
3.47706e-05
3.47703e-05
3.47699e-05
3.47692e-05
3.47684e-05
3.47677e-05
3.4799e-05
3.48045e-05
3.47972e-05
3.47956e-05
3.4804e-05
3.47975e-05
3.47963e-05
3.48075e-05
3.47999e-05
3.48109e-05
3.48019e-05
3.48135e-05
3.48036e-05
3.48144e-05
3.4817e-05
3.48038e-05
3.48118e-05
3.48018e-05
3.47992e-05
3.48071e-05
2.69436e-05
2.4267e-05
2.31703e-05
2.38675e-05
2.60485e-05
2.9107e-05
3.23653e-05
3.53835e-05
3.79665e-05
4.00361e-05
4.15339e-05
4.24146e-05
4.26824e-05
4.24136e-05
4.17048e-05
4.05785e-05
3.89854e-05
3.67788e-05
3.38396e-05
3.03243e-05
2.66761e-05
2.98003e-05
3.35874e-05
3.708e-05
3.97037e-05
4.13724e-05
4.23523e-05
4.29269e-05
4.32302e-05
4.3197e-05
4.26402e-05
4.14739e-05
3.9792e-05
3.77217e-05
3.52933e-05
3.24836e-05
2.94634e-05
2.66989e-05
2.48845e-05
2.46907e-05
3.62445e-05
3.78916e-05
3.90837e-05
3.98763e-05
4.03646e-05
4.06143e-05
4.07298e-05
4.07871e-05
4.07381e-05
4.03138e-05
3.92236e-05
3.74176e-05
3.506e-05
3.2499e-05
3.01948e-05
2.8648e-05
2.82653e-05
2.92033e-05
3.12108e-05
3.36778e-05
3.67267e-05
3.76114e-05
3.81238e-05
3.83675e-05
3.84612e-05
3.85213e-05
3.86184e-05
3.87646e-05
3.89234e-05
3.89311e-05
3.84686e-05
3.69552e-05
3.39931e-05
3.00871e-05
2.68151e-05
2.58158e-05
2.72706e-05
3.00959e-05
3.29618e-05
3.51723e-05
3.68828e-05
3.72451e-05
3.74039e-05
3.74719e-05
3.75338e-05
3.76109e-05
3.77339e-05
3.79027e-05
3.82043e-05
3.89735e-05
3.99571e-05
3.94506e-05
3.64463e-05
3.24921e-05
2.99358e-05
2.96603e-05
3.11214e-05
3.31348e-05
3.48906e-05
3.61243e-05
3.67082e-05
3.68251e-05
3.68637e-05
3.68791e-05
3.69186e-05
3.69893e-05
3.71165e-05
3.72934e-05
3.76687e-05
3.94667e-05
4.29599e-05
4.4801e-05
4.17805e-05
3.65461e-05
3.31425e-05
3.24592e-05
3.33845e-05
3.4687e-05
3.57406e-05
3.63864e-05
3.65773e-05
3.65304e-05
3.65222e-05
3.65432e-05
3.65976e-05
3.66737e-05
3.67933e-05
3.69587e-05
3.73261e-05
3.90603e-05
4.39415e-05
5.01629e-05
5.28975e-05
4.93744e-05
4.38582e-05
4.00035e-05
3.8015e-05
3.71381e-05
3.6787e-05
3.66389e-05
3.63803e-05
3.63294e-05
3.63224e-05
3.63381e-05
3.63784e-05
3.6441e-05
3.65397e-05
3.66884e-05
3.69562e-05
3.66542e-05
3.77036e-05
4.05068e-05
4.29573e-05
4.35133e-05
4.22811e-05
4.03583e-05
3.8603e-05
3.74255e-05
3.67932e-05
3.64977e-05
3.62004e-05
3.61869e-05
3.61957e-05
3.62196e-05
3.62579e-05
3.63137e-05
3.63924e-05
3.65241e-05
3.67403e-05
3.52327e-05
3.27096e-05
2.99013e-05
3.04228e-05
3.403e-05
3.66106e-05
3.72635e-05
3.6983e-05
3.66004e-05
3.63608e-05
3.62447e-05
3.61104e-05
3.6113e-05
3.6123e-05
3.61412e-05
3.61691e-05
3.6213e-05
3.62741e-05
3.63873e-05
3.65649e-05
3.48876e-05
3.244e-05
2.86197e-05
2.76796e-05
3.0529e-05
3.36004e-05
3.5263e-05
3.5892e-05
3.60752e-05
3.61124e-05
3.61126e-05
3.60614e-05
3.60679e-05
3.60786e-05
3.60955e-05
3.61182e-05
3.61531e-05
3.6199e-05
3.62907e-05
3.64264e-05
3.46218e-05
3.23862e-05
2.82968e-05
2.73351e-05
2.9976e-05
3.29386e-05
3.47578e-05
3.56004e-05
3.59228e-05
3.60261e-05
3.60535e-05
3.60356e-05
3.60413e-05
3.60495e-05
3.6062e-05
3.60789e-05
3.61052e-05
3.6141e-05
3.62133e-05
3.63336e-05
3.4409e-05
3.28589e-05
2.93056e-05
2.85005e-05
3.07971e-05
3.33174e-05
3.48828e-05
3.56219e-05
3.59091e-05
3.60023e-05
3.60279e-05
3.60185e-05
3.60238e-05
3.60309e-05
3.60411e-05
3.60543e-05
3.60738e-05
3.61007e-05
3.61526e-05
3.62496e-05
3.4467e-05
3.23875e-05
2.82217e-05
2.80519e-05
3.07995e-05
3.33885e-05
3.49187e-05
3.56259e-05
3.58979e-05
3.59862e-05
3.60109e-05
3.60069e-05
3.60113e-05
3.60168e-05
3.60246e-05
3.60346e-05
3.60488e-05
3.6069e-05
3.61055e-05
3.62203e-05
3.48777e-05
3.38806e-05
3.00075e-05
2.93526e-05
3.14919e-05
3.36783e-05
3.50155e-05
3.56478e-05
3.5895e-05
3.59766e-05
3.59999e-05
3.59988e-05
3.60023e-05
3.60067e-05
3.60129e-05
3.60208e-05
3.60313e-05
3.60464e-05
3.60712e-05
3.61704e-05
3.4439e-05
3.18746e-05
2.82679e-05
2.88335e-05
3.15112e-05
3.37754e-05
3.50752e-05
3.56705e-05
3.58985e-05
3.59724e-05
3.5993e-05
3.59924e-05
3.59948e-05
3.59982e-05
3.6003e-05
3.60091e-05
3.60168e-05
3.60257e-05
3.60382e-05
3.60461e-05
3.26588e-05
2.67236e-05
2.46586e-05
2.72214e-05
3.10097e-05
3.37432e-05
3.51398e-05
3.57147e-05
3.59143e-05
3.59735e-05
3.59886e-05
3.5988e-05
3.59889e-05
3.59912e-05
3.59951e-05
3.6e-05
3.60063e-05
3.60134e-05
3.60222e-05
3.60272e-05
3.57311e-05
3.55235e-05
3.55969e-05
3.57718e-05
3.58828e-05
3.59259e-05
3.59629e-05
3.59842e-05
3.59907e-05
3.59903e-05
3.59887e-05
3.59828e-05
3.59832e-05
3.59849e-05
3.59879e-05
3.59919e-05
3.5997e-05
3.60024e-05
3.60092e-05
3.60161e-05
3.60121e-05
3.60063e-05
3.60066e-05
3.60121e-05
3.60137e-05
3.60101e-05
3.60034e-05
3.59967e-05
3.59908e-05
3.59865e-05
3.59838e-05
3.59781e-05
3.59781e-05
3.59793e-05
3.59817e-05
3.59849e-05
3.59891e-05
3.59936e-05
3.59985e-05
3.60022e-05
3.60054e-05
3.6004e-05
3.60038e-05
3.60063e-05
3.60058e-05
3.60026e-05
3.59972e-05
3.59914e-05
3.59861e-05
3.5982e-05
3.59793e-05
3.59735e-05
3.59733e-05
3.59741e-05
3.5976e-05
3.59787e-05
3.59822e-05
3.5986e-05
3.59904e-05
3.59941e-05
3.59969e-05
3.59965e-05
3.59959e-05
3.59967e-05
3.59961e-05
3.59938e-05
3.59896e-05
3.5985e-05
3.59806e-05
3.59772e-05
3.59748e-05
3.59693e-05
3.59689e-05
3.59694e-05
3.59709e-05
3.5973e-05
3.5976e-05
3.59791e-05
3.59827e-05
3.59855e-05
3.59881e-05
3.59884e-05
3.59889e-05
3.599e-05
3.59895e-05
3.59875e-05
3.5984e-05
3.598e-05
3.59762e-05
3.5973e-05
3.59707e-05
3.59653e-05
3.59648e-05
3.59651e-05
3.59662e-05
3.5968e-05
3.59705e-05
3.59732e-05
3.59765e-05
3.59791e-05
3.59816e-05
3.59822e-05
3.59825e-05
3.5983e-05
3.59825e-05
3.59809e-05
3.59781e-05
3.59748e-05
3.59716e-05
3.59688e-05
3.59666e-05
3.59616e-05
3.5961e-05
3.59611e-05
3.59619e-05
3.59633e-05
3.59654e-05
3.59678e-05
3.59705e-05
3.59728e-05
3.5975e-05
3.59759e-05
3.59767e-05
3.59775e-05
3.59771e-05
3.59757e-05
3.59733e-05
3.59705e-05
3.59676e-05
3.5965e-05
3.5963e-05
3.59582e-05
3.59575e-05
3.59574e-05
3.5958e-05
3.59592e-05
3.5961e-05
3.5963e-05
3.59655e-05
3.59676e-05
3.59697e-05
3.59707e-05
3.59714e-05
3.59719e-05
3.59716e-05
3.59705e-05
3.59685e-05
3.59661e-05
3.59636e-05
3.59613e-05
3.59595e-05
3.5955e-05
3.59542e-05
3.5954e-05
3.59544e-05
3.59554e-05
3.59569e-05
3.59587e-05
3.59608e-05
3.59627e-05
3.59646e-05
3.59657e-05
3.59667e-05
3.59673e-05
3.59671e-05
3.59662e-05
3.59645e-05
3.59624e-05
3.59601e-05
3.5958e-05
3.59563e-05
3.5952e-05
3.59512e-05
3.5951e-05
3.59512e-05
3.5952e-05
3.59533e-05
3.59548e-05
3.59568e-05
3.59585e-05
3.59603e-05
3.59614e-05
3.59623e-05
3.59628e-05
3.59627e-05
3.59619e-05
3.59605e-05
3.59587e-05
3.59568e-05
3.59549e-05
3.59533e-05
3.59493e-05
3.59485e-05
3.59482e-05
3.59483e-05
3.59489e-05
3.595e-05
3.59513e-05
3.59531e-05
3.59546e-05
3.59563e-05
3.59574e-05
3.59584e-05
3.59589e-05
3.59589e-05
3.59583e-05
3.59571e-05
3.59555e-05
3.59538e-05
3.5952e-05
3.59505e-05
3.59469e-05
3.59461e-05
3.59457e-05
3.59457e-05
3.59462e-05
3.59471e-05
3.59483e-05
3.59498e-05
3.59513e-05
3.59528e-05
3.59539e-05
3.59548e-05
3.59554e-05
3.59554e-05
3.59549e-05
3.59539e-05
3.59525e-05
3.5951e-05
3.59494e-05
3.5948e-05
3.59446e-05
3.59438e-05
3.59434e-05
3.59434e-05
3.59437e-05
3.59445e-05
3.59455e-05
3.59469e-05
3.59482e-05
3.59497e-05
3.59507e-05
3.59517e-05
3.59522e-05
3.59524e-05
3.5952e-05
3.59511e-05
3.59499e-05
3.59485e-05
3.59471e-05
3.59457e-05
3.59426e-05
3.59419e-05
3.59414e-05
3.59413e-05
3.59415e-05
3.59422e-05
3.59431e-05
3.59443e-05
3.59456e-05
3.59469e-05
3.59479e-05
3.59489e-05
3.59494e-05
3.59496e-05
3.59493e-05
3.59486e-05
3.59475e-05
3.59463e-05
3.59449e-05
3.59437e-05
3.59409e-05
3.59401e-05
3.59396e-05
3.59394e-05
3.59396e-05
3.59402e-05
3.59409e-05
3.59421e-05
3.59432e-05
3.59445e-05
3.59455e-05
3.59464e-05
3.59469e-05
3.59472e-05
3.5947e-05
3.59463e-05
3.59454e-05
3.59442e-05
3.5943e-05
3.59419e-05
3.59393e-05
3.59385e-05
3.5938e-05
3.59378e-05
3.59379e-05
3.59384e-05
3.59391e-05
3.59401e-05
3.59412e-05
3.59424e-05
3.59433e-05
3.59442e-05
3.59448e-05
3.5945e-05
3.59449e-05
3.59444e-05
3.59435e-05
3.59425e-05
3.59414e-05
3.59403e-05
3.59379e-05
3.59372e-05
3.59366e-05
3.59364e-05
3.59364e-05
3.59368e-05
3.59374e-05
3.59384e-05
3.59394e-05
3.59405e-05
3.59414e-05
3.59423e-05
3.59429e-05
3.59432e-05
3.59431e-05
3.59426e-05
3.59419e-05
3.59409e-05
3.59399e-05
3.59389e-05
3.59368e-05
3.5936e-05
3.59355e-05
3.59352e-05
3.59352e-05
3.59355e-05
3.59361e-05
3.5937e-05
3.59379e-05
3.5939e-05
3.59399e-05
3.59407e-05
3.59413e-05
3.59416e-05
3.59416e-05
3.59412e-05
3.59405e-05
3.59396e-05
3.59386e-05
3.59377e-05
3.59357e-05
3.5935e-05
3.59344e-05
3.59341e-05
3.59341e-05
3.59344e-05
3.59349e-05
3.59357e-05
3.59366e-05
3.59376e-05
3.59385e-05
3.59393e-05
3.59399e-05
3.59402e-05
3.59403e-05
3.59399e-05
3.59393e-05
3.59385e-05
3.59375e-05
3.59366e-05
3.59349e-05
3.59342e-05
3.59337e-05
3.59333e-05
3.59333e-05
3.59335e-05
3.59339e-05
3.59347e-05
3.59356e-05
3.59366e-05
3.59374e-05
3.59383e-05
3.59388e-05
3.59392e-05
3.59393e-05
3.59389e-05
3.59384e-05
3.59376e-05
3.59367e-05
3.59358e-05
3.59342e-05
3.59335e-05
3.59329e-05
3.59326e-05
3.59325e-05
3.59327e-05
3.59331e-05
3.59339e-05
3.59347e-05
3.59357e-05
3.59365e-05
3.59373e-05
3.59379e-05
3.59383e-05
3.59384e-05
3.5938e-05
3.59375e-05
3.59368e-05
3.59359e-05
3.59351e-05
3.59338e-05
3.59331e-05
3.59325e-05
3.59321e-05
3.59321e-05
3.59322e-05
3.59326e-05
3.59333e-05
3.59341e-05
3.59351e-05
3.59359e-05
3.59367e-05
3.59373e-05
3.59377e-05
3.59378e-05
3.59375e-05
3.59371e-05
3.59363e-05
3.59355e-05
3.59347e-05
3.59336e-05
3.59329e-05
3.59323e-05
3.59318e-05
3.59318e-05
3.5932e-05
3.59323e-05
3.5933e-05
3.59338e-05
3.59347e-05
3.59355e-05
3.59364e-05
3.59369e-05
3.59373e-05
3.59375e-05
3.59372e-05
3.59367e-05
3.5936e-05
3.59351e-05
3.59344e-05
3.59655e-05
3.59706e-05
3.59636e-05
3.59623e-05
3.59702e-05
3.5964e-05
3.5963e-05
3.59738e-05
3.59665e-05
3.59771e-05
3.59686e-05
3.59797e-05
3.59702e-05
3.59806e-05
3.59828e-05
3.59703e-05
3.59779e-05
3.59683e-05
3.59659e-05
3.59733e-05
2.67716e-05
2.43353e-05
2.3665e-05
2.48359e-05
2.74154e-05
3.07284e-05
3.41004e-05
3.71463e-05
3.97114e-05
4.17354e-05
4.3162e-05
4.39448e-05
4.40909e-05
4.36837e-05
4.28224e-05
4.15106e-05
3.96771e-05
3.71664e-05
3.39039e-05
3.01576e-05
2.76532e-05
3.11822e-05
3.51617e-05
3.86598e-05
4.11972e-05
4.27775e-05
4.3707e-05
4.42595e-05
4.45507e-05
4.44891e-05
4.38607e-05
4.25697e-05
4.07127e-05
3.84158e-05
3.57081e-05
3.2599e-05
2.93486e-05
2.65374e-05
2.4928e-05
2.5159e-05
3.7392e-05
3.91247e-05
4.03468e-05
4.11433e-05
4.16233e-05
4.18633e-05
4.19773e-05
4.20407e-05
4.19965e-05
4.15449e-05
4.03517e-05
3.83445e-05
3.56979e-05
3.28046e-05
3.02006e-05
2.85128e-05
2.8231e-05
2.94837e-05
3.18759e-05
3.46505e-05
3.79897e-05
3.8881e-05
3.93832e-05
3.96132e-05
3.97012e-05
3.97649e-05
3.98699e-05
4.00266e-05
4.02047e-05
4.02248e-05
3.96666e-05
3.78767e-05
3.45295e-05
3.03141e-05
2.699e-05
2.61907e-05
2.79648e-05
3.10683e-05
3.4105e-05
3.64012e-05
3.81442e-05
3.84926e-05
3.86413e-05
3.87057e-05
3.87701e-05
3.88509e-05
3.8981e-05
3.91585e-05
3.94989e-05
4.03522e-05
4.1244e-05
4.03283e-05
3.68205e-05
3.26046e-05
3.01296e-05
3.01893e-05
3.20058e-05
3.42541e-05
3.61222e-05
3.73898e-05
3.79485e-05
3.80565e-05
3.80921e-05
3.81084e-05
3.81525e-05
3.82278e-05
3.83615e-05
3.85456e-05
3.89576e-05
4.09082e-05
4.43735e-05
4.5674e-05
4.19795e-05
3.65883e-05
3.34664e-05
3.31978e-05
3.44327e-05
3.58912e-05
3.69939e-05
3.76394e-05
3.77902e-05
3.77522e-05
3.77493e-05
3.77741e-05
3.7832e-05
3.79111e-05
3.80353e-05
3.82066e-05
3.8607e-05
4.05055e-05
4.55326e-05
5.12983e-05
5.29154e-05
4.86666e-05
4.34139e-05
4.02108e-05
3.87421e-05
3.81533e-05
3.7931e-05
3.78333e-05
3.75938e-05
3.75521e-05
3.75495e-05
3.75681e-05
3.76112e-05
3.76766e-05
3.7779e-05
3.79328e-05
3.82127e-05
3.79645e-05
3.92306e-05
4.19299e-05
4.36678e-05
4.35848e-05
4.23406e-05
4.07906e-05
3.94e-05
3.84517e-05
3.79349e-05
3.76905e-05
3.74227e-05
3.74134e-05
3.74244e-05
3.74502e-05
3.74901e-05
3.7548e-05
3.76291e-05
3.77654e-05
3.79896e-05
3.64554e-05
3.39565e-05
3.10095e-05
3.13784e-05
3.47828e-05
3.73531e-05
3.81508e-05
3.80246e-05
3.77419e-05
3.75526e-05
3.74583e-05
3.73365e-05
3.73403e-05
3.73515e-05
3.73711e-05
3.74004e-05
3.74461e-05
3.7509e-05
3.76262e-05
3.78097e-05
3.61183e-05
3.37478e-05
2.97977e-05
2.88048e-05
3.16641e-05
3.47515e-05
3.64395e-05
3.70925e-05
3.72901e-05
3.73339e-05
3.73371e-05
3.72886e-05
3.72957e-05
3.73072e-05
3.7325e-05
3.73487e-05
3.7385e-05
3.74322e-05
3.75272e-05
3.76667e-05
3.58603e-05
3.37383e-05
2.95106e-05
2.85636e-05
3.1278e-05
3.42462e-05
3.60368e-05
3.68528e-05
3.71596e-05
3.72559e-05
3.7281e-05
3.72628e-05
3.72689e-05
3.72778e-05
3.72911e-05
3.73088e-05
3.73361e-05
3.73731e-05
3.74479e-05
3.75718e-05
3.56464e-05
3.43102e-05
3.06359e-05
2.98177e-05
3.21584e-05
3.46585e-05
3.61774e-05
3.68803e-05
3.71478e-05
3.72327e-05
3.72556e-05
3.72457e-05
3.72513e-05
3.72589e-05
3.72698e-05
3.72836e-05
3.73039e-05
3.73316e-05
3.73853e-05
3.74854e-05
3.57249e-05
3.38012e-05
2.9488e-05
2.93557e-05
3.2158e-05
3.47262e-05
3.62107e-05
3.68829e-05
3.71361e-05
3.72166e-05
3.72387e-05
3.72341e-05
3.72386e-05
3.72445e-05
3.72529e-05
3.72634e-05
3.72783e-05
3.72992e-05
3.73368e-05
3.74562e-05
3.61837e-05
3.54412e-05
3.13877e-05
3.07007e-05
3.28576e-05
3.50127e-05
3.63041e-05
3.69029e-05
3.71326e-05
3.72068e-05
3.72276e-05
3.72259e-05
3.72295e-05
3.72342e-05
3.72408e-05
3.72492e-05
3.72601e-05
3.72758e-05
3.73014e-05
3.7405e-05
3.57121e-05
3.32636e-05
2.95427e-05
3.01583e-05
3.2869e-05
3.51036e-05
3.63595e-05
3.69235e-05
3.71352e-05
3.72023e-05
3.72206e-05
3.72193e-05
3.72219e-05
3.72254e-05
3.72306e-05
3.72371e-05
3.72452e-05
3.72544e-05
3.72674e-05
3.7275e-05
3.37253e-05
2.75807e-05
2.56286e-05
2.84318e-05
3.23351e-05
3.50609e-05
3.64178e-05
3.69636e-05
3.71489e-05
3.72025e-05
3.72158e-05
3.72147e-05
3.72157e-05
3.72183e-05
3.72224e-05
3.72276e-05
3.72342e-05
3.72416e-05
3.72507e-05
3.72557e-05
3.69493e-05
3.67452e-05
3.68294e-05
3.70079e-05
3.71157e-05
3.71576e-05
3.71932e-05
3.72126e-05
3.72178e-05
3.72169e-05
3.72152e-05
3.72092e-05
3.72098e-05
3.72117e-05
3.7215e-05
3.72192e-05
3.72245e-05
3.72302e-05
3.72372e-05
3.72443e-05
3.72401e-05
3.72342e-05
3.72345e-05
3.72402e-05
3.72414e-05
3.72373e-05
3.72302e-05
3.72231e-05
3.72171e-05
3.72128e-05
3.72102e-05
3.72044e-05
3.72046e-05
3.7206e-05
3.72085e-05
3.7212e-05
3.72164e-05
3.7221e-05
3.72261e-05
3.72298e-05
3.72331e-05
3.72314e-05
3.72312e-05
3.72338e-05
3.7233e-05
3.72295e-05
3.72238e-05
3.72178e-05
3.72124e-05
3.72082e-05
3.72056e-05
3.71997e-05
3.71996e-05
3.72006e-05
3.72026e-05
3.72054e-05
3.72092e-05
3.72131e-05
3.72177e-05
3.72214e-05
3.72243e-05
3.72237e-05
3.72231e-05
3.72238e-05
3.7223e-05
3.72205e-05
3.72161e-05
3.72112e-05
3.72068e-05
3.72033e-05
3.72009e-05
3.71954e-05
3.71951e-05
3.71957e-05
3.71973e-05
3.71996e-05
3.72027e-05
3.7206e-05
3.72097e-05
3.72125e-05
3.72152e-05
3.72153e-05
3.72158e-05
3.72169e-05
3.72163e-05
3.72141e-05
3.72104e-05
3.72062e-05
3.72023e-05
3.7199e-05
3.71967e-05
3.71913e-05
3.71908e-05
3.71912e-05
3.71924e-05
3.71943e-05
3.7197e-05
3.71999e-05
3.72032e-05
3.72059e-05
3.72084e-05
3.7209e-05
3.72092e-05
3.72097e-05
3.7209e-05
3.72073e-05
3.72043e-05
3.72009e-05
3.71975e-05
3.71947e-05
3.71926e-05
3.71875e-05
3.71869e-05
3.7187e-05
3.7188e-05
3.71895e-05
3.71917e-05
3.71942e-05
3.7197e-05
3.71994e-05
3.72016e-05
3.72025e-05
3.72033e-05
3.7204e-05
3.72035e-05
3.7202e-05
3.71994e-05
3.71964e-05
3.71935e-05
3.71908e-05
3.71888e-05
3.71839e-05
3.71832e-05
3.71832e-05
3.71839e-05
3.71852e-05
3.71871e-05
3.71892e-05
3.71918e-05
3.7194e-05
3.71961e-05
3.71971e-05
3.71978e-05
3.71982e-05
3.71978e-05
3.71966e-05
3.71945e-05
3.7192e-05
3.71894e-05
3.71871e-05
3.71852e-05
3.71806e-05
3.71799e-05
3.71797e-05
3.71802e-05
3.71813e-05
3.71829e-05
3.71847e-05
3.71869e-05
3.71889e-05
3.71908e-05
3.71919e-05
3.71928e-05
3.71934e-05
3.71932e-05
3.71921e-05
3.71903e-05
3.71881e-05
3.71858e-05
3.71837e-05
3.71819e-05
3.71776e-05
3.71768e-05
3.71766e-05
3.71769e-05
3.71777e-05
3.71791e-05
3.71807e-05
3.71827e-05
3.71845e-05
3.71863e-05
3.71874e-05
3.71883e-05
3.71888e-05
3.71886e-05
3.71878e-05
3.71863e-05
3.71844e-05
3.71824e-05
3.71804e-05
3.71788e-05
3.71748e-05
3.7174e-05
3.71737e-05
3.71739e-05
3.71745e-05
3.71757e-05
3.71771e-05
3.71789e-05
3.71805e-05
3.71822e-05
3.71833e-05
3.71843e-05
3.71848e-05
3.71847e-05
3.71841e-05
3.71828e-05
3.71811e-05
3.71793e-05
3.71775e-05
3.7176e-05
3.71722e-05
3.71715e-05
3.71711e-05
3.71712e-05
3.71717e-05
3.71727e-05
3.71739e-05
3.71755e-05
3.7177e-05
3.71786e-05
3.71797e-05
3.71806e-05
3.71811e-05
3.71811e-05
3.71806e-05
3.71795e-05
3.71781e-05
3.71764e-05
3.71748e-05
3.71734e-05
3.717e-05
3.71692e-05
3.71688e-05
3.71687e-05
3.71692e-05
3.717e-05
3.71711e-05
3.71725e-05
3.71739e-05
3.71753e-05
3.71764e-05
3.71773e-05
3.71779e-05
3.7178e-05
3.71775e-05
3.71766e-05
3.71753e-05
3.71739e-05
3.71724e-05
3.71711e-05
3.71679e-05
3.71671e-05
3.71667e-05
3.71666e-05
3.71669e-05
3.71676e-05
3.71686e-05
3.71699e-05
3.71711e-05
3.71725e-05
3.71735e-05
3.71744e-05
3.7175e-05
3.71751e-05
3.71748e-05
3.7174e-05
3.71729e-05
3.71716e-05
3.71702e-05
3.7169e-05
3.71661e-05
3.71653e-05
3.71648e-05
3.71647e-05
3.71649e-05
3.71655e-05
3.71663e-05
3.71675e-05
3.71687e-05
3.717e-05
3.7171e-05
3.71719e-05
3.71724e-05
3.71726e-05
3.71724e-05
3.71717e-05
3.71707e-05
3.71695e-05
3.71682e-05
3.71671e-05
3.71645e-05
3.71637e-05
3.71632e-05
3.7163e-05
3.71631e-05
3.71637e-05
3.71644e-05
3.71655e-05
3.71666e-05
3.71678e-05
3.71688e-05
3.71696e-05
3.71702e-05
3.71704e-05
3.71702e-05
3.71697e-05
3.71688e-05
3.71677e-05
3.71665e-05
3.71654e-05
3.7163e-05
3.71623e-05
3.71617e-05
3.71615e-05
3.71616e-05
3.7162e-05
3.71627e-05
3.71637e-05
3.71647e-05
3.71659e-05
3.71668e-05
3.71677e-05
3.71682e-05
3.71685e-05
3.71684e-05
3.71679e-05
3.71671e-05
3.71661e-05
3.7165e-05
3.7164e-05
3.71618e-05
3.71611e-05
3.71606e-05
3.71603e-05
3.71603e-05
3.71607e-05
3.71613e-05
3.71622e-05
3.71631e-05
3.71643e-05
3.71652e-05
3.7166e-05
3.71666e-05
3.71669e-05
3.71668e-05
3.71664e-05
3.71657e-05
3.71648e-05
3.71637e-05
3.71628e-05
3.71608e-05
3.716e-05
3.71595e-05
3.71592e-05
3.71592e-05
3.71595e-05
3.716e-05
3.71609e-05
3.71618e-05
3.71629e-05
3.71637e-05
3.71646e-05
3.71652e-05
3.71655e-05
3.71655e-05
3.71651e-05
3.71644e-05
3.71636e-05
3.71626e-05
3.71617e-05
3.716e-05
3.71593e-05
3.71587e-05
3.71583e-05
3.71583e-05
3.71586e-05
3.7159e-05
3.71599e-05
3.71607e-05
3.71618e-05
3.71626e-05
3.71635e-05
3.71641e-05
3.71644e-05
3.71644e-05
3.71641e-05
3.71635e-05
3.71627e-05
3.71617e-05
3.71609e-05
3.71592e-05
3.71585e-05
3.71579e-05
3.71576e-05
3.71575e-05
3.71578e-05
3.71582e-05
3.7159e-05
3.71598e-05
3.71609e-05
3.71617e-05
3.71625e-05
3.71631e-05
3.71634e-05
3.71635e-05
3.71632e-05
3.71626e-05
3.71619e-05
3.71609e-05
3.71601e-05
3.71588e-05
3.71581e-05
3.71575e-05
3.71571e-05
3.71571e-05
3.71573e-05
3.71576e-05
3.71585e-05
3.71592e-05
3.71603e-05
3.7161e-05
3.71619e-05
3.71625e-05
3.71629e-05
3.7163e-05
3.71626e-05
3.71622e-05
3.71614e-05
3.71605e-05
3.71597e-05
3.71585e-05
3.71578e-05
3.71572e-05
3.71568e-05
3.71568e-05
3.7157e-05
3.71573e-05
3.71581e-05
3.71588e-05
3.71599e-05
3.71606e-05
3.71615e-05
3.7162e-05
3.71625e-05
3.71626e-05
3.71622e-05
3.71618e-05
3.7161e-05
3.71602e-05
3.71594e-05
3.71903e-05
3.71949e-05
3.71884e-05
3.71873e-05
3.71946e-05
3.71888e-05
3.71881e-05
3.71983e-05
3.71914e-05
3.72016e-05
3.71934e-05
3.72042e-05
3.71951e-05
3.7205e-05
3.7207e-05
3.7195e-05
3.72022e-05
3.71931e-05
3.71909e-05
3.71976e-05
2.66215e-05
2.4497e-05
2.43052e-05
2.59684e-05
2.89359e-05
3.24717e-05
3.59336e-05
3.89913e-05
4.1528e-05
4.34984e-05
4.48465e-05
4.55235e-05
4.55392e-05
4.49836e-05
4.39542e-05
4.24351e-05
4.03324e-05
3.74903e-05
3.38975e-05
2.99507e-05
2.87854e-05
3.26967e-05
3.68296e-05
4.0305e-05
4.27461e-05
4.42449e-05
4.51278e-05
4.56599e-05
4.59391e-05
4.58469e-05
4.51405e-05
4.37136e-05
4.16658e-05
3.91212e-05
3.61132e-05
3.26921e-05
2.9225e-05
2.64103e-05
2.50653e-05
2.57708e-05
3.86309e-05
4.0438e-05
4.16828e-05
4.24784e-05
4.29467e-05
4.31768e-05
4.32897e-05
4.33601e-05
4.33222e-05
4.28441e-05