/*--------------------------------*- C++ -*----------------------------------*\
| =========                 |                                                 |
| \\      /  F ield         | OpenFOAM: The Open Source CFD Toolbox           |
|  \\    /   O peration     | Version:  2.4.0                                 |
|   \\  /    A nd           | Web:      www.OpenFOAM.org                      |
|    \\/     M anipulation  |                                                 |
\*---------------------------------------------------------------------------*/
FoamFile
{
    version     2.0;
    format      ascii;
    class       volScalarField;
    location    "140";
    object      k;
}
// * * * * * * * * * * * * * * * * * * * * * * * * * * * * * * * * * * * * * //

dimensions      [0 2 -2 0 0 0 0];

internalField   nonuniform List<scalar> 
283312
(
2.56126e-05
2.29261e-05
2.1837e-05
2.2594e-05
2.50061e-05
2.85614e-05
3.25874e-05
3.65046e-05
3.99749e-05
4.28195e-05
4.49127e-05
4.61522e-05
4.64952e-05
4.59943e-05
4.47326e-05
4.27585e-05
4.01277e-05
3.68863e-05
3.31293e-05
2.91329e-05
2.21043e-05
2.62969e-05
3.15507e-05
3.67875e-05
4.11612e-05
4.43281e-05
4.64083e-05
4.76972e-05
4.84047e-05
4.84854e-05
4.7623e-05
4.55277e-05
4.2232e-05
3.80685e-05
3.34975e-05
2.88591e-05
2.46054e-05
2.1277e-05
1.94238e-05
1.95302e-05
3.36171e-05
3.83323e-05
4.18279e-05
4.41515e-05
4.55622e-05
4.63146e-05
4.66637e-05
4.68149e-05
4.67577e-05
4.59953e-05
4.36789e-05
3.94729e-05
3.38716e-05
2.78334e-05
2.24082e-05
1.86782e-05
1.73357e-05
1.8631e-05
2.23564e-05
2.76651e-05
3.94996e-05
4.21093e-05
4.36242e-05
4.43848e-05
4.47096e-05
4.4846e-05
4.49512e-05
4.50774e-05
4.51986e-05
4.45927e-05
4.19171e-05
3.69699e-05
3.07954e-05
2.48139e-05
2.03733e-05
1.87066e-05
2.0312e-05
2.46108e-05
3.01349e-05
3.53499e-05
4.20572e-05
4.31803e-05
4.3683e-05
4.38822e-05
4.39773e-05
4.40512e-05
4.41541e-05
4.42983e-05
4.47083e-05
4.42872e-05
4.10949e-05
3.53853e-05
2.87654e-05
2.31645e-05
2.04985e-05
2.16008e-05
2.57837e-05
3.12375e-05
3.62079e-05
3.98181e-05
4.28126e-05
4.322e-05
4.33613e-05
4.34038e-05
4.34391e-05
4.34954e-05
4.35998e-05
4.3752e-05
4.42561e-05
4.34335e-05
3.9954e-05
3.47389e-05
2.89388e-05
2.45772e-05
2.36731e-05
2.65085e-05
3.14044e-05
3.62133e-05
3.97237e-05
4.17885e-05
4.28439e-05
4.3012e-05
4.30654e-05
4.30956e-05
4.31416e-05
4.32042e-05
4.33043e-05
4.34479e-05
4.39317e-05
4.1878e-05
3.79234e-05
3.3899e-05
2.97153e-05
2.62972e-05
2.60588e-05
2.94233e-05
3.42793e-05
3.84138e-05
4.1008e-05
4.23007e-05
4.2821e-05
4.28818e-05
4.28997e-05
4.29149e-05
4.29462e-05
4.29965e-05
4.30789e-05
4.32056e-05
4.34031e-05
3.96857e-05
3.45222e-05
3.04751e-05
2.73778e-05
2.59321e-05
2.77666e-05
3.21743e-05
3.68194e-05
4.00931e-05
4.18309e-05
4.25612e-05
4.27529e-05
4.2775e-05
4.2787e-05
4.28056e-05
4.28357e-05
4.28809e-05
4.29468e-05
4.30588e-05
4.32187e-05
3.83092e-05
3.12189e-05
2.50166e-05
2.24096e-05
2.4483e-05
2.94825e-05
3.49498e-05
3.90247e-05
4.12978e-05
4.22953e-05
4.26476e-05
4.27025e-05
4.27149e-05
4.27234e-05
4.27366e-05
4.27579e-05
4.27929e-05
4.28436e-05
4.29392e-05
4.30654e-05
3.74279e-05
3.01454e-05
2.40356e-05
2.23036e-05
2.5941e-05
3.19859e-05
3.72013e-05
4.03844e-05
4.18913e-05
4.24696e-05
4.26528e-05
4.26645e-05
4.26745e-05
4.26829e-05
4.26954e-05
4.27128e-05
4.27405e-05
4.27783e-05
4.28555e-05
4.29455e-05
3.66887e-05
2.93773e-05
2.35286e-05
2.29765e-05
2.78062e-05
3.4006e-05
3.8586e-05
4.10633e-05
4.21325e-05
4.25162e-05
4.26329e-05
4.26436e-05
4.26517e-05
4.26581e-05
4.26671e-05
4.26797e-05
4.27001e-05
4.27292e-05
4.27897e-05
4.28666e-05
3.61209e-05
2.91302e-05
2.40371e-05
2.43393e-05
2.95221e-05
3.53608e-05
3.9351e-05
4.13915e-05
4.22369e-05
4.25315e-05
4.26197e-05
4.2629e-05
4.26364e-05
4.2642e-05
4.26495e-05
4.26593e-05
4.26741e-05
4.26956e-05
4.27387e-05
4.2797e-05
3.58619e-05
2.83915e-05
2.29927e-05
2.41321e-05
2.99425e-05
3.58113e-05
3.96162e-05
4.15012e-05
4.2266e-05
4.2529e-05
4.26075e-05
4.26197e-05
4.26263e-05
4.26309e-05
4.26365e-05
4.26437e-05
4.26542e-05
4.267e-05
4.26998e-05
4.27745e-05
3.59748e-05
2.928e-05
2.43532e-05
2.53359e-05
3.07058e-05
3.61911e-05
3.97737e-05
4.15549e-05
4.22775e-05
4.25256e-05
4.25995e-05
4.26138e-05
4.26194e-05
4.26231e-05
4.26276e-05
4.26332e-05
4.26408e-05
4.26523e-05
4.26722e-05
4.27365e-05
3.55455e-05
2.77219e-05
2.32115e-05
2.53833e-05
3.12155e-05
3.66252e-05
4.00135e-05
4.16565e-05
4.23107e-05
4.25316e-05
4.25964e-05
4.26108e-05
4.26143e-05
4.2617e-05
4.26204e-05
4.26246e-05
4.263e-05
4.26363e-05
4.26455e-05
4.26493e-05
3.5772e-05
2.616e-05
2.27332e-05
2.62781e-05
3.25415e-05
3.76989e-05
4.0625e-05
4.19257e-05
4.24061e-05
4.25581e-05
4.26001e-05
4.26098e-05
4.26106e-05
4.26122e-05
4.26148e-05
4.26182e-05
4.26226e-05
4.26276e-05
4.26339e-05
4.26364e-05
4.18921e-05
4.14337e-05
4.162e-05
4.20134e-05
4.22808e-05
4.23993e-05
4.25023e-05
4.25693e-05
4.25988e-05
4.26079e-05
4.26096e-05
4.26064e-05
4.26067e-05
4.26079e-05
4.261e-05
4.26127e-05
4.26161e-05
4.26198e-05
4.26244e-05
4.26294e-05
4.26129e-05
4.26025e-05
4.26071e-05
4.26175e-05
4.26225e-05
4.26211e-05
4.26179e-05
4.26146e-05
4.26114e-05
4.26088e-05
4.26071e-05
4.26033e-05
4.26033e-05
4.26042e-05
4.26058e-05
4.2608e-05
4.26108e-05
4.26138e-05
4.26171e-05
4.26196e-05
4.26214e-05
4.26203e-05
4.26201e-05
4.26218e-05
4.26214e-05
4.26194e-05
4.26159e-05
4.26121e-05
4.26086e-05
4.26059e-05
4.26041e-05
4.26003e-05
4.26002e-05
4.26008e-05
4.2602e-05
4.26038e-05
4.26062e-05
4.26087e-05
4.26116e-05
4.26141e-05
4.26158e-05
4.26154e-05
4.26148e-05
4.26153e-05
4.2615e-05
4.26136e-05
4.26109e-05
4.26078e-05
4.2605e-05
4.26027e-05
4.26011e-05
4.25976e-05
4.25973e-05
4.25977e-05
4.25987e-05
4.26001e-05
4.26021e-05
4.26042e-05
4.26065e-05
4.26083e-05
4.26099e-05
4.26101e-05
4.26103e-05
4.26109e-05
4.26106e-05
4.26094e-05
4.26071e-05
4.26046e-05
4.26021e-05
4.26e-05
4.25984e-05
4.2595e-05
4.25946e-05
4.25948e-05
4.25956e-05
4.25968e-05
4.25985e-05
4.26003e-05
4.26024e-05
4.26041e-05
4.26057e-05
4.2606e-05
4.26061e-05
4.26064e-05
4.26061e-05
4.26051e-05
4.26033e-05
4.26012e-05
4.2599e-05
4.25972e-05
4.25958e-05
4.25926e-05
4.25922e-05
4.25923e-05
4.25928e-05
4.25938e-05
4.25951e-05
4.25967e-05
4.25985e-05
4.26e-05
4.26014e-05
4.26019e-05
4.26024e-05
4.26028e-05
4.26026e-05
4.26017e-05
4.26002e-05
4.25983e-05
4.25965e-05
4.25948e-05
4.25935e-05
4.25903e-05
4.25899e-05
4.25899e-05
4.25903e-05
4.25911e-05
4.25922e-05
4.25936e-05
4.25952e-05
4.25966e-05
4.25979e-05
4.25985e-05
4.25989e-05
4.25992e-05
4.2599e-05
4.25983e-05
4.25971e-05
4.25955e-05
4.25939e-05
4.25924e-05
4.25912e-05
4.25883e-05
4.25878e-05
4.25877e-05
4.2588e-05
4.25886e-05
4.25896e-05
4.25907e-05
4.25921e-05
4.25934e-05
4.25946e-05
4.25953e-05
4.25958e-05
4.25962e-05
4.25961e-05
4.25955e-05
4.25944e-05
4.25931e-05
4.25916e-05
4.25903e-05
4.25891e-05
4.25864e-05
4.25859e-05
4.25857e-05
4.25859e-05
4.25864e-05
4.25872e-05
4.25882e-05
4.25895e-05
4.25906e-05
4.25917e-05
4.25925e-05
4.2593e-05
4.25933e-05
4.25933e-05
4.25928e-05
4.25919e-05
4.25907e-05
4.25894e-05
4.25882e-05
4.25872e-05
4.25846e-05
4.25841e-05
4.25839e-05
4.2584e-05
4.25844e-05
4.25851e-05
4.2586e-05
4.25871e-05
4.25881e-05
4.25891e-05
4.25899e-05
4.25905e-05
4.25908e-05
4.25908e-05
4.25904e-05
4.25897e-05
4.25886e-05
4.25875e-05
4.25864e-05
4.25854e-05
4.2583e-05
4.25825e-05
4.25822e-05
4.25823e-05
4.25826e-05
4.25832e-05
4.25839e-05
4.25849e-05
4.25859e-05
4.25869e-05
4.25876e-05
4.25881e-05
4.25885e-05
4.25885e-05
4.25883e-05
4.25876e-05
4.25867e-05
4.25857e-05
4.25847e-05
4.25838e-05
4.25816e-05
4.25811e-05
4.25808e-05
4.25807e-05
4.2581e-05
4.25815e-05
4.25821e-05
4.2583e-05
4.25839e-05
4.25848e-05
4.25855e-05
4.25861e-05
4.25865e-05
4.25866e-05
4.25863e-05
4.25858e-05
4.2585e-05
4.25841e-05
4.25831e-05
4.25823e-05
4.25803e-05
4.25798e-05
4.25795e-05
4.25794e-05
4.25796e-05
4.258e-05
4.25806e-05
4.25814e-05
4.25822e-05
4.2583e-05
4.25837e-05
4.25843e-05
4.25846e-05
4.25848e-05
4.25846e-05
4.25841e-05
4.25834e-05
4.25826e-05
4.25818e-05
4.2581e-05
4.25791e-05
4.25786e-05
4.25783e-05
4.25782e-05
4.25783e-05
4.25787e-05
4.25792e-05
4.25799e-05
4.25806e-05
4.25814e-05
4.25821e-05
4.25827e-05
4.2583e-05
4.25832e-05
4.25831e-05
4.25827e-05
4.25821e-05
4.25813e-05
4.25805e-05
4.25798e-05
4.25781e-05
4.25776e-05
4.25773e-05
4.25771e-05
4.25772e-05
4.25775e-05
4.25779e-05
4.25786e-05
4.25793e-05
4.25801e-05
4.25807e-05
4.25813e-05
4.25816e-05
4.25818e-05
4.25817e-05
4.25814e-05
4.25808e-05
4.25802e-05
4.25794e-05
4.25787e-05
4.25772e-05
4.25767e-05
4.25764e-05
4.25762e-05
4.25762e-05
4.25765e-05
4.25769e-05
4.25775e-05
4.25781e-05
4.25788e-05
4.25795e-05
4.258e-05
4.25804e-05
4.25806e-05
4.25805e-05
4.25803e-05
4.25798e-05
4.25792e-05
4.25785e-05
4.25778e-05
4.25765e-05
4.2576e-05
4.25756e-05
4.25754e-05
4.25754e-05
4.25756e-05
4.2576e-05
4.25766e-05
4.25772e-05
4.25778e-05
4.25784e-05
4.2579e-05
4.25794e-05
4.25796e-05
4.25796e-05
4.25793e-05
4.25789e-05
4.25783e-05
4.25777e-05
4.2577e-05
4.25758e-05
4.25753e-05
4.25749e-05
4.25747e-05
4.25747e-05
4.25749e-05
4.25752e-05
4.25757e-05
4.25763e-05
4.2577e-05
4.25775e-05
4.25781e-05
4.25785e-05
4.25787e-05
4.25787e-05
4.25785e-05
4.25781e-05
4.25776e-05
4.25769e-05
4.25764e-05
4.25753e-05
4.25748e-05
4.25744e-05
4.25742e-05
4.25742e-05
4.25743e-05
4.25746e-05
4.25751e-05
4.25756e-05
4.25763e-05
4.25768e-05
4.25774e-05
4.25778e-05
4.2578e-05
4.2578e-05
4.25778e-05
4.25775e-05
4.2577e-05
4.25764e-05
4.25758e-05
4.25748e-05
4.25743e-05
4.2574e-05
4.25737e-05
4.25737e-05
4.25738e-05
4.25741e-05
4.25745e-05
4.25751e-05
4.25757e-05
4.25762e-05
4.25768e-05
4.25771e-05
4.25774e-05
4.25775e-05
4.25773e-05
4.25769e-05
4.25765e-05
4.25759e-05
4.25754e-05
4.25746e-05
4.25741e-05
4.25737e-05
4.25734e-05
4.25734e-05
4.25735e-05
4.25737e-05
4.25742e-05
4.25747e-05
4.25753e-05
4.25758e-05
4.25764e-05
4.25768e-05
4.2577e-05
4.25771e-05
4.25769e-05
4.25766e-05
4.25762e-05
4.25756e-05
4.25751e-05
4.25744e-05
4.2574e-05
4.25736e-05
4.25733e-05
4.25732e-05
4.25734e-05
4.25736e-05
4.2574e-05
4.25745e-05
4.25751e-05
4.25757e-05
4.25762e-05
4.25766e-05
4.25768e-05
4.25769e-05
4.25768e-05
4.25765e-05
4.2576e-05
4.25755e-05
4.2575e-05
4.26041e-05
4.2609e-05
4.26027e-05
4.26015e-05
4.26088e-05
4.26031e-05
4.26021e-05
4.26118e-05
4.2605e-05
4.26144e-05
4.26064e-05
4.26163e-05
4.26076e-05
4.26169e-05
4.2619e-05
4.26075e-05
4.26146e-05
4.2606e-05
4.26039e-05
4.2611e-05
2.47474e-05
2.23035e-05
2.16348e-05
2.28817e-05
2.57408e-05
2.96313e-05
3.38314e-05
3.78053e-05
4.12593e-05
4.40395e-05
4.60288e-05
4.71267e-05
4.72937e-05
4.65901e-05
4.51134e-05
4.28945e-05
3.99901e-05
3.64561e-05
3.24289e-05
2.8264e-05
2.25435e-05
2.71672e-05
3.26834e-05
3.7984e-05
4.22837e-05
4.53241e-05
4.73031e-05
4.85224e-05
4.91779e-05
4.91983e-05
4.82373e-05
4.59941e-05
4.25125e-05
3.81412e-05
3.33434e-05
2.84942e-05
2.4096e-05
2.07568e-05
1.90769e-05
1.95404e-05
3.44446e-05
3.92187e-05
4.27012e-05
4.49822e-05
4.63439e-05
4.70524e-05
4.7379e-05
4.75236e-05
4.74628e-05
4.66778e-05
4.4276e-05
3.99021e-05
3.40742e-05
2.77997e-05
2.21884e-05
1.83919e-05
1.71453e-05
1.86998e-05
2.27703e-05
2.83771e-05
4.0414e-05
4.29731e-05
4.44316e-05
4.51469e-05
4.54454e-05
4.55745e-05
4.56811e-05
4.58125e-05
4.59489e-05
4.53959e-05
4.26895e-05
3.75473e-05
3.10848e-05
2.4866e-05
2.03663e-05
1.88517e-05
2.0748e-05
2.53375e-05
3.10417e-05
3.63109e-05
4.29055e-05
4.39711e-05
4.44377e-05
4.46198e-05
4.47102e-05
4.47842e-05
4.48906e-05
4.50404e-05
4.55153e-05
4.53049e-05
4.21434e-05
3.61679e-05
2.91857e-05
2.33723e-05
2.07501e-05
2.21084e-05
2.65757e-05
3.21924e-05
3.71893e-05
4.07471e-05
4.35964e-05
4.39723e-05
4.41001e-05
4.41388e-05
4.4176e-05
4.42349e-05
4.4343e-05
4.44996e-05
4.50766e-05
4.44501e-05
4.09132e-05
3.53235e-05
2.91014e-05
2.46167e-05
2.39461e-05
2.71457e-05
3.22901e-05
3.71692e-05
4.06389e-05
4.26323e-05
4.35909e-05
4.37518e-05
4.38043e-05
4.38357e-05
4.38834e-05
4.39473e-05
4.40498e-05
4.41966e-05
4.47491e-05
4.27042e-05
3.86084e-05
3.42774e-05
2.96655e-05
2.60861e-05
2.61416e-05
2.99321e-05
3.50453e-05
3.92468e-05
4.1818e-05
4.30741e-05
4.35581e-05
4.36201e-05
4.36398e-05
4.36566e-05
4.36897e-05
4.37414e-05
4.38255e-05
4.39545e-05
4.41568e-05
4.01944e-05
3.487e-05
3.07125e-05
2.74189e-05
2.59385e-05
2.80192e-05
3.27328e-05
3.75445e-05
4.08577e-05
4.25869e-05
4.33055e-05
4.34937e-05
4.35169e-05
4.35302e-05
4.35497e-05
4.35806e-05
4.36267e-05
4.36935e-05
4.38075e-05
4.39699e-05
3.87845e-05
3.15224e-05
2.52535e-05
2.27139e-05
2.49138e-05
3.0099e-05
3.5697e-05
3.98064e-05
4.20663e-05
4.30471e-05
4.33911e-05
4.3446e-05
4.34583e-05
4.34673e-05
4.34813e-05
4.35033e-05
4.35391e-05
4.35904e-05
4.36878e-05
4.38152e-05
3.78832e-05
3.04772e-05
2.43362e-05
2.27401e-05
2.66099e-05
3.28127e-05
3.80583e-05
4.1205e-05
4.26712e-05
4.32258e-05
4.33993e-05
4.34093e-05
4.3419e-05
4.34277e-05
4.34405e-05
4.34583e-05
4.34866e-05
4.35249e-05
4.36035e-05
4.36936e-05
3.71271e-05
2.97283e-05
2.38661e-05
2.35042e-05
2.85896e-05
3.49066e-05
3.94696e-05
4.18885e-05
4.29125e-05
4.32729e-05
4.33805e-05
4.33886e-05
4.33963e-05
4.34029e-05
4.34124e-05
4.34253e-05
4.34462e-05
4.34757e-05
4.35372e-05
4.36142e-05
3.65427e-05
2.95332e-05
2.44566e-05
2.49397e-05
3.0348e-05
3.62687e-05
4.02263e-05
4.22081e-05
4.30122e-05
4.32866e-05
4.3367e-05
4.33742e-05
4.33813e-05
4.33871e-05
4.33948e-05
4.34048e-05
4.342e-05
4.34418e-05
4.34856e-05
4.3544e-05
3.62841e-05
2.87685e-05
2.33867e-05
2.47447e-05
3.07759e-05
3.67139e-05
4.04829e-05
4.23119e-05
4.30387e-05
4.32833e-05
4.33548e-05
4.3365e-05
4.33712e-05
4.33759e-05
4.33817e-05
4.33892e-05
4.34e-05
4.3416e-05
4.34463e-05
4.35222e-05
3.64153e-05
2.97373e-05
2.48131e-05
2.59726e-05
3.15384e-05
3.70863e-05
4.06347e-05
4.23625e-05
4.30488e-05
4.32794e-05
4.33468e-05
4.33591e-05
4.33643e-05
4.33681e-05
4.33727e-05
4.33785e-05
4.33863e-05
4.33981e-05
4.34183e-05
4.3484e-05
3.5962e-05
2.80909e-05
2.36408e-05
2.60376e-05
3.20605e-05
3.75193e-05
4.08687e-05
4.24595e-05
4.30796e-05
4.32846e-05
4.33435e-05
4.33558e-05
4.33592e-05
4.33619e-05
4.33655e-05
4.33698e-05
4.33754e-05
4.33819e-05
4.33913e-05
4.33949e-05
3.61591e-05
2.63089e-05
2.30672e-05
2.69499e-05
3.34202e-05
3.85996e-05
4.14696e-05
4.27177e-05
4.31688e-05
4.33085e-05
4.33463e-05
4.33544e-05
4.33553e-05
4.33571e-05
4.33598e-05
4.33633e-05
4.33678e-05
4.33729e-05
4.33794e-05
4.33818e-05
4.26012e-05
4.21518e-05
4.23667e-05
4.27717e-05
4.30354e-05
4.31526e-05
4.32539e-05
4.33178e-05
4.33449e-05
4.33528e-05
4.33542e-05
4.33509e-05
4.33514e-05
4.33527e-05
4.33549e-05
4.33577e-05
4.33612e-05
4.3365e-05
4.33697e-05
4.33748e-05
4.33574e-05
4.33473e-05
4.33525e-05
4.33631e-05
4.33677e-05
4.3366e-05
4.33626e-05
4.33591e-05
4.33558e-05
4.33532e-05
4.33515e-05
4.33478e-05
4.3348e-05
4.33489e-05
4.33506e-05
4.33529e-05
4.33558e-05
4.33589e-05
4.33622e-05
4.33647e-05
4.33665e-05
4.33652e-05
4.33651e-05
4.33668e-05
4.33663e-05
4.33641e-05
4.33604e-05
4.33565e-05
4.3353e-05
4.33503e-05
4.33486e-05
4.33448e-05
4.33447e-05
4.33454e-05
4.33468e-05
4.33486e-05
4.33511e-05
4.33537e-05
4.33566e-05
4.33591e-05
4.33608e-05
4.33603e-05
4.33597e-05
4.33601e-05
4.33597e-05
4.33582e-05
4.33554e-05
4.33523e-05
4.33494e-05
4.33471e-05
4.33455e-05
4.3342e-05
4.33418e-05
4.33423e-05
4.33433e-05
4.33448e-05
4.33469e-05
4.3349e-05
4.33514e-05
4.33532e-05
4.33548e-05
4.33549e-05
4.3355e-05
4.33557e-05
4.33553e-05
4.33539e-05
4.33516e-05
4.3349e-05
4.33464e-05
4.33443e-05
4.33428e-05
4.33394e-05
4.33391e-05
4.33394e-05
4.33402e-05
4.33414e-05
4.33432e-05
4.3345e-05
4.33472e-05
4.33489e-05
4.33505e-05
4.33508e-05
4.33508e-05
4.33511e-05
4.33507e-05
4.33496e-05
4.33477e-05
4.33456e-05
4.33434e-05
4.33416e-05
4.33402e-05
4.3337e-05
4.33366e-05
4.33367e-05
4.33373e-05
4.33384e-05
4.33398e-05
4.33414e-05
4.33432e-05
4.33447e-05
4.33461e-05
4.33466e-05
4.3347e-05
4.33475e-05
4.33472e-05
4.33462e-05
4.33446e-05
4.33427e-05
4.33408e-05
4.33391e-05
4.33378e-05
4.33347e-05
4.33343e-05
4.33343e-05
4.33347e-05
4.33356e-05
4.33368e-05
4.33382e-05
4.33398e-05
4.33412e-05
4.33426e-05
4.33432e-05
4.33435e-05
4.33438e-05
4.33436e-05
4.33428e-05
4.33415e-05
4.33399e-05
4.33382e-05
4.33367e-05
4.33355e-05
4.33326e-05
4.33321e-05
4.33321e-05
4.33324e-05
4.33331e-05
4.33341e-05
4.33353e-05
4.33367e-05
4.33379e-05
4.33392e-05
4.33398e-05
4.33404e-05
4.33407e-05
4.33406e-05
4.33399e-05
4.33388e-05
4.33374e-05
4.33359e-05
4.33346e-05
4.33334e-05
4.33307e-05
4.33302e-05
4.333e-05
4.33303e-05
4.33308e-05
4.33317e-05
4.33327e-05
4.3334e-05
4.33351e-05
4.33363e-05
4.3337e-05
4.33375e-05
4.33378e-05
4.33377e-05
4.33372e-05
4.33362e-05
4.3335e-05
4.33337e-05
4.33325e-05
4.33314e-05
4.33289e-05
4.33284e-05
4.33282e-05
4.33283e-05
4.33287e-05
4.33295e-05
4.33304e-05
4.33315e-05
4.33326e-05
4.33336e-05
4.33343e-05
4.33349e-05
4.33353e-05
4.33352e-05
4.33348e-05
4.3334e-05
4.33329e-05
4.33318e-05
4.33306e-05
4.33297e-05
4.33273e-05
4.33268e-05
4.33265e-05
4.33266e-05
4.33269e-05
4.33276e-05
4.33283e-05
4.33294e-05
4.33303e-05
4.33313e-05
4.3332e-05
4.33326e-05
4.33329e-05
4.33329e-05
4.33326e-05
4.33319e-05
4.3331e-05
4.333e-05
4.33289e-05
4.3328e-05
4.33258e-05
4.33253e-05
4.3325e-05
4.3325e-05
4.33253e-05
4.33258e-05
4.33265e-05
4.33274e-05
4.33283e-05
4.33292e-05
4.33299e-05
4.33305e-05
4.33308e-05
4.33309e-05
4.33306e-05
4.333e-05
4.33292e-05
4.33283e-05
4.33274e-05
4.33265e-05
4.33245e-05
4.3324e-05
4.33237e-05
4.33236e-05
4.33238e-05
4.33243e-05
4.33249e-05
4.33257e-05
4.33265e-05
4.33274e-05
4.33281e-05
4.33286e-05
4.3329e-05
4.33291e-05
4.33289e-05
4.33284e-05
4.33277e-05
4.33268e-05
4.3326e-05
4.33252e-05
4.33233e-05
4.33228e-05
4.33225e-05
4.33224e-05
4.33225e-05
4.33229e-05
4.33235e-05
4.33242e-05
4.33249e-05
4.33258e-05
4.33264e-05
4.3327e-05
4.33273e-05
4.33275e-05
4.33273e-05
4.33269e-05
4.33263e-05
4.33255e-05
4.33247e-05
4.3324e-05
4.33223e-05
4.33218e-05
4.33215e-05
4.33213e-05
4.33214e-05
4.33218e-05
4.33222e-05
4.33229e-05
4.33236e-05
4.33244e-05
4.3325e-05
4.33256e-05
4.33259e-05
4.33261e-05
4.3326e-05
4.33256e-05
4.33251e-05
4.33244e-05
4.33236e-05
4.33229e-05
4.33214e-05
4.33209e-05
4.33205e-05
4.33204e-05
4.33204e-05
4.33207e-05
4.33211e-05
4.33218e-05
4.33224e-05
4.33231e-05
4.33237e-05
4.33243e-05
4.33247e-05
4.33248e-05
4.33248e-05
4.33245e-05
4.3324e-05
4.33233e-05
4.33226e-05
4.3322e-05
4.33206e-05
4.33201e-05
4.33198e-05
4.33196e-05
4.33196e-05
4.33199e-05
4.33202e-05
4.33208e-05
4.33214e-05
4.33221e-05
4.33227e-05
4.33232e-05
4.33236e-05
4.33238e-05
4.33238e-05
4.33235e-05
4.33231e-05
4.33225e-05
4.33218e-05
4.33212e-05
4.33199e-05
4.33194e-05
4.33191e-05
4.33189e-05
4.33189e-05
4.33191e-05
4.33194e-05
4.332e-05
4.33205e-05
4.33212e-05
4.33218e-05
4.33223e-05
4.33227e-05
4.33229e-05
4.33229e-05
4.33227e-05
4.33223e-05
4.33217e-05
4.33211e-05
4.33205e-05
4.33194e-05
4.33189e-05
4.33186e-05
4.33184e-05
4.33183e-05
4.33185e-05
4.33188e-05
4.33193e-05
4.33199e-05
4.33205e-05
4.33211e-05
4.33216e-05
4.3322e-05
4.33222e-05
4.33222e-05
4.3322e-05
4.33217e-05
4.33212e-05
4.33205e-05
4.332e-05
4.33189e-05
4.33185e-05
4.33181e-05
4.33179e-05
4.33178e-05
4.3318e-05
4.33182e-05
4.33188e-05
4.33193e-05
4.33199e-05
4.33205e-05
4.3321e-05
4.33214e-05
4.33216e-05
4.33216e-05
4.33214e-05
4.33211e-05
4.33206e-05
4.332e-05
4.33195e-05
4.33187e-05
4.33182e-05
4.33178e-05
4.33176e-05
4.33175e-05
4.33177e-05
4.33179e-05
4.33184e-05
4.33189e-05
4.33195e-05
4.33201e-05
4.33206e-05
4.3321e-05
4.33212e-05
4.33213e-05
4.33211e-05
4.33208e-05
4.33203e-05
4.33197e-05
4.33192e-05
4.33185e-05
4.33181e-05
4.33177e-05
4.33174e-05
4.33174e-05
4.33175e-05
4.33177e-05
4.33182e-05
4.33187e-05
4.33193e-05
4.33199e-05
4.33204e-05
4.33208e-05
4.3321e-05
4.33211e-05
4.33209e-05
4.33206e-05
4.33201e-05
4.33196e-05
4.33191e-05
4.33476e-05
4.3352e-05
4.33462e-05
4.33452e-05
4.3352e-05
4.33467e-05
4.33458e-05
4.33549e-05
4.33485e-05
4.33574e-05
4.33499e-05
4.33593e-05
4.3351e-05
4.33598e-05
4.33617e-05
4.33509e-05
4.33575e-05
4.33494e-05
4.33476e-05
4.3354e-05
2.39247e-05
2.17847e-05
2.15791e-05
2.33293e-05
2.66239e-05
3.08098e-05
3.51515e-05
3.91594e-05
4.25799e-05
4.5282e-05
4.71556e-05
4.81008e-05
4.80817e-05
4.71657e-05
4.54576e-05
4.2979e-05
3.97883e-05
3.59572e-05
3.16736e-05
2.73796e-05
2.31517e-05
2.81793e-05
3.39103e-05
3.92326e-05
4.34339e-05
4.63489e-05
4.82267e-05
4.93748e-05
4.99761e-05
4.99328e-05
4.88683e-05
4.6471e-05
4.27975e-05
3.82137e-05
3.31935e-05
2.8142e-05
2.36229e-05
2.03122e-05
1.88519e-05
1.97098e-05
3.53822e-05
4.01825e-05
4.36279e-05
4.58505e-05
4.71536e-05
4.78154e-05
4.81193e-05
4.82577e-05
4.81942e-05
4.73908e-05
4.49083e-05
4.0367e-05
3.43101e-05
2.78014e-05
2.20185e-05
1.81878e-05
1.7077e-05
1.89243e-05
2.33484e-05
2.92318e-05
4.1382e-05
4.3874e-05
4.52669e-05
4.59334e-05
4.62058e-05
4.63278e-05
4.64362e-05
4.65735e-05
4.67269e-05
4.62507e-05
4.35386e-05
3.82049e-05
3.14434e-05
2.4982e-05
2.04373e-05
1.90989e-05
2.13034e-05
2.61815e-05
3.20467e-05
3.73456e-05
4.37836e-05
4.47865e-05
4.52161e-05
4.53815e-05
4.54678e-05
4.55422e-05
4.56524e-05
4.58081e-05
4.63582e-05
4.64273e-05
4.33535e-05
3.71211e-05
2.97628e-05
2.37237e-05
2.11427e-05
2.2754e-05
2.7487e-05
3.32373e-05
3.82324e-05
4.17172e-05
4.44049e-05
4.47489e-05
4.48636e-05
4.4899e-05
4.49383e-05
4.49998e-05
4.51116e-05
4.52727e-05
4.59349e-05
4.55838e-05
4.20406e-05
3.60791e-05
2.94231e-05
2.48092e-05
2.43709e-05
2.79152e-05
3.32728e-05
3.81879e-05
4.15936e-05
4.35042e-05
4.4366e-05
4.45177e-05
4.45687e-05
4.4601e-05
4.46504e-05
4.47157e-05
4.48205e-05
4.49705e-05
4.5604e-05
4.36124e-05
3.94031e-05
3.47825e-05
2.9771e-05
2.60757e-05
2.64426e-05
3.06228e-05
3.59341e-05
4.01541e-05
4.26739e-05
4.38802e-05
4.43231e-05
4.43845e-05
4.44053e-05
4.44238e-05
4.44585e-05
4.45116e-05
4.45974e-05
4.47287e-05
4.49361e-05
4.07135e-05
3.52326e-05
3.09797e-05
2.75326e-05
2.60871e-05
2.84529e-05
3.34493e-05
3.83777e-05
4.16891e-05
4.3386e-05
4.40819e-05
4.42607e-05
4.42842e-05
4.42985e-05
4.4319e-05
4.43506e-05
4.43976e-05
4.44654e-05
4.45813e-05
4.47463e-05
3.92702e-05
3.18405e-05
2.55132e-05
2.30656e-05
2.54374e-05
3.08307e-05
3.6542e-05
4.06555e-05
4.28797e-05
4.38318e-05
4.41627e-05
4.42148e-05
4.42268e-05
4.42364e-05
4.42511e-05
4.42738e-05
4.43104e-05
4.43624e-05
4.44616e-05
4.45902e-05
3.83496e-05
3.0829e-05
2.46608e-05
2.32158e-05
2.73397e-05
3.37044e-05
3.89675e-05
4.20637e-05
4.3481e-05
4.40086e-05
4.41713e-05
4.41791e-05
4.41885e-05
4.41975e-05
4.42108e-05
4.4229e-05
4.42579e-05
4.42966e-05
4.43766e-05
4.44667e-05
3.75772e-05
3.01022e-05
2.42283e-05
2.40674e-05
2.94174e-05
3.58476e-05
4.03853e-05
4.27404e-05
4.37173e-05
4.40543e-05
4.41529e-05
4.41586e-05
4.4166e-05
4.41729e-05
4.41827e-05
4.4196e-05
4.42174e-05
4.42473e-05
4.43099e-05
4.43869e-05
3.69759e-05
2.99655e-05
2.49041e-05
2.55743e-05
3.12114e-05
3.72089e-05
4.11279e-05
4.30485e-05
4.38114e-05
4.4066e-05
4.41391e-05
4.41444e-05
4.41512e-05
4.41571e-05
4.41652e-05
4.41755e-05
4.4191e-05
4.42132e-05
4.42576e-05
4.43161e-05
3.67185e-05
2.91724e-05
2.38076e-05
2.53906e-05
3.1645e-05
3.76469e-05
4.1375e-05
4.31462e-05
4.38351e-05
4.4062e-05
4.41269e-05
4.41352e-05
4.41412e-05
4.41459e-05
4.4152e-05
4.41597e-05
4.41708e-05
4.41872e-05
4.42179e-05
4.4295e-05
3.68702e-05
3.02277e-05
2.53015e-05
2.66422e-05
3.24058e-05
3.80115e-05
4.15209e-05
4.31937e-05
4.38439e-05
4.40577e-05
4.41188e-05
4.41294e-05
4.41343e-05
4.41381e-05
4.4143e-05
4.4149e-05
4.41569e-05
4.4169e-05
4.41895e-05
4.42566e-05
3.63913e-05
2.84872e-05
2.40983e-05
2.67258e-05
3.29401e-05
3.84429e-05
4.1749e-05
4.3286e-05
4.38723e-05
4.4062e-05
4.41153e-05
4.41259e-05
4.4129e-05
4.41319e-05
4.41356e-05
4.41401e-05
4.41458e-05
4.41525e-05
4.41621e-05
4.41655e-05
3.65533e-05
2.64651e-05
2.34266e-05
2.76596e-05
3.43347e-05
3.95283e-05
4.23381e-05
4.3533e-05
4.39555e-05
4.40835e-05
4.41174e-05
4.41241e-05
4.4125e-05
4.41269e-05
4.41298e-05
4.41335e-05
4.41381e-05
4.41433e-05
4.41499e-05
4.41523e-05
4.33336e-05
4.28954e-05
4.31398e-05
4.35557e-05
4.38149e-05
4.3931e-05
4.40305e-05
4.40911e-05
4.41159e-05
4.41228e-05
4.41238e-05
4.41205e-05
4.41211e-05
4.41225e-05
4.41248e-05
4.41277e-05
4.41314e-05
4.41353e-05
4.41401e-05
4.41452e-05
4.41269e-05
4.41172e-05
4.41229e-05
4.41336e-05
4.41378e-05
4.41359e-05
4.41323e-05
4.41286e-05
4.41253e-05
4.41226e-05
4.4121e-05
4.41173e-05
4.41176e-05
4.41186e-05
4.41205e-05
4.41228e-05
4.41259e-05
4.4129e-05
4.41324e-05
4.41348e-05
4.41366e-05
4.41352e-05
4.41351e-05
4.41368e-05
4.41361e-05
4.41337e-05
4.413e-05
4.4126e-05
4.41224e-05
4.41197e-05
4.4118e-05
4.41143e-05
4.41143e-05
4.41151e-05
4.41165e-05
4.41185e-05
4.4121e-05
4.41237e-05
4.41267e-05
4.41291e-05
4.41308e-05
4.41302e-05
4.41296e-05
4.413e-05
4.41295e-05
4.41278e-05
4.41249e-05
4.41217e-05
4.41188e-05
4.41165e-05
4.4115e-05
4.41115e-05
4.41114e-05
4.41119e-05
4.4113e-05
4.41146e-05
4.41167e-05
4.41189e-05
4.41213e-05
4.41231e-05
4.41247e-05
4.41247e-05
4.41249e-05
4.41255e-05
4.4125e-05
4.41235e-05
4.41211e-05
4.41184e-05
4.41158e-05
4.41137e-05
4.41123e-05
4.41088e-05
4.41086e-05
4.41089e-05
4.41098e-05
4.41111e-05
4.41129e-05
4.41148e-05
4.4117e-05
4.41188e-05
4.41203e-05
4.41205e-05
4.41206e-05
4.41208e-05
4.41203e-05
4.41192e-05
4.41172e-05
4.4115e-05
4.41128e-05
4.4111e-05
4.41096e-05
4.41064e-05
4.41061e-05
4.41062e-05
4.41069e-05
4.4108e-05
4.41095e-05
4.41111e-05
4.4113e-05
4.41144e-05
4.41158e-05
4.41163e-05
4.41167e-05
4.41171e-05
4.41168e-05
4.41157e-05
4.4114e-05
4.41121e-05
4.41102e-05
4.41085e-05
4.41072e-05
4.41041e-05
4.41037e-05
4.41037e-05
4.41043e-05
4.41051e-05
4.41064e-05
4.41078e-05
4.41095e-05
4.41109e-05
4.41122e-05
4.41128e-05
4.41132e-05
4.41134e-05
4.41131e-05
4.41123e-05
4.41109e-05
4.41093e-05
4.41076e-05
4.41061e-05
4.41049e-05
4.41019e-05
4.41015e-05
4.41015e-05
4.41018e-05
4.41026e-05
4.41036e-05
4.41049e-05
4.41063e-05
4.41076e-05
4.41088e-05
4.41094e-05
4.411e-05
4.41103e-05
4.41101e-05
4.41094e-05
4.41082e-05
4.41067e-05
4.41052e-05
4.41039e-05
4.41027e-05
4.41e-05
4.40995e-05
4.40994e-05
4.40997e-05
4.41002e-05
4.41012e-05
4.41022e-05
4.41035e-05
4.41047e-05
4.41058e-05
4.41065e-05
4.4107e-05
4.41073e-05
4.41072e-05
4.41066e-05
4.41056e-05
4.41044e-05
4.4103e-05
4.41018e-05
4.41007e-05
4.40982e-05
4.40977e-05
4.40975e-05
4.40977e-05
4.40982e-05
4.40989e-05
4.40999e-05
4.4101e-05
4.41021e-05
4.41031e-05
4.41038e-05
4.41044e-05
4.41047e-05
4.41046e-05
4.41042e-05
4.41033e-05
4.41022e-05
4.4101e-05
4.40999e-05
4.40989e-05
4.40965e-05
4.40961e-05
4.40958e-05
4.40959e-05
4.40963e-05
4.4097e-05
4.40978e-05
4.40988e-05
4.40998e-05
4.41008e-05
4.41014e-05
4.4102e-05
4.41023e-05
4.41023e-05
4.41019e-05
4.41012e-05
4.41003e-05
4.40992e-05
4.40982e-05
4.40973e-05
4.4095e-05
4.40946e-05
4.40943e-05
4.40943e-05
4.40946e-05
4.40952e-05
4.40959e-05
4.40968e-05
4.40977e-05
4.40986e-05
4.40993e-05
4.40999e-05
4.41002e-05
4.41003e-05
4.41e-05
4.40993e-05
4.40985e-05
4.40976e-05
4.40966e-05
4.40957e-05
4.40937e-05
4.40932e-05
4.4093e-05
4.40929e-05
4.40931e-05
4.40936e-05
4.40942e-05
4.40951e-05
4.40959e-05
4.40968e-05
4.40974e-05
4.4098e-05
4.40983e-05
4.40984e-05
4.40982e-05
4.40976e-05
4.40969e-05
4.40961e-05
4.40952e-05
4.40944e-05
4.40925e-05
4.4092e-05
4.40917e-05
4.40917e-05
4.40918e-05
4.40922e-05
4.40928e-05
4.40935e-05
4.40943e-05
4.40951e-05
4.40958e-05
4.40963e-05
4.40967e-05
4.40968e-05
4.40966e-05
4.40961e-05
4.40955e-05
4.40947e-05
4.40939e-05
4.40932e-05
4.40915e-05
4.4091e-05
4.40907e-05
4.40906e-05
4.40907e-05
4.4091e-05
4.40915e-05
4.40922e-05
4.40929e-05
4.40937e-05
4.40943e-05
4.40949e-05
4.40952e-05
4.40953e-05
4.40952e-05
4.40948e-05
4.40943e-05
4.40936e-05
4.40928e-05
4.40921e-05
4.40905e-05
4.40901e-05
4.40897e-05
4.40896e-05
4.40897e-05
4.409e-05
4.40904e-05
4.4091e-05
4.40917e-05
4.40924e-05
4.4093e-05
4.40936e-05
4.40939e-05
4.40941e-05
4.4094e-05
4.40937e-05
4.40932e-05
4.40925e-05
4.40918e-05
4.40912e-05
4.40898e-05
4.40893e-05
4.4089e-05
4.40888e-05
4.40888e-05
4.40891e-05
4.40895e-05
4.40901e-05
4.40907e-05
4.40914e-05
4.4092e-05
4.40925e-05
4.40929e-05
4.40931e-05
4.4093e-05
4.40927e-05
4.40923e-05
4.40917e-05
4.4091e-05
4.40904e-05
4.40891e-05
4.40886e-05
4.40883e-05
4.40881e-05
4.40881e-05
4.40883e-05
4.40886e-05
4.40892e-05
4.40898e-05
4.40905e-05
4.4091e-05
4.40916e-05
4.40919e-05
4.40921e-05
4.40921e-05
4.40919e-05
4.40914e-05
4.40909e-05
4.40902e-05
4.40897e-05
4.40886e-05
4.40881e-05
4.40877e-05
4.40875e-05
4.40875e-05
4.40877e-05
4.4088e-05
4.40886e-05
4.40891e-05
4.40898e-05
4.40903e-05
4.40909e-05
4.40912e-05
4.40914e-05
4.40915e-05
4.40912e-05
4.40908e-05
4.40903e-05
4.40897e-05
4.40891e-05
4.40881e-05
4.40876e-05
4.40873e-05
4.4087e-05
4.4087e-05
4.40872e-05
4.40875e-05
4.4088e-05
4.40885e-05
4.40892e-05
4.40897e-05
4.40902e-05
4.40906e-05
4.40908e-05
4.40908e-05
4.40906e-05
4.40903e-05
4.40898e-05
4.40892e-05
4.40886e-05
4.40878e-05
4.40874e-05
4.4087e-05
4.40867e-05
4.40867e-05
4.40869e-05
4.40871e-05
4.40876e-05
4.40881e-05
4.40888e-05
4.40893e-05
4.40898e-05
4.40902e-05
4.40904e-05
4.40905e-05
4.40903e-05
4.409e-05
4.40895e-05
4.40889e-05
4.40884e-05
4.40877e-05
4.40872e-05
4.40869e-05
4.40866e-05
4.40866e-05
4.40867e-05
4.40869e-05
4.40874e-05
4.40879e-05
4.40886e-05
4.40891e-05
4.40896e-05
4.409e-05
4.40902e-05
4.40903e-05
4.40901e-05
4.40898e-05
4.40893e-05
4.40887e-05
4.40882e-05
4.41161e-05
4.412e-05
4.41147e-05
4.41139e-05
4.41201e-05
4.41152e-05
4.41145e-05
4.41231e-05
4.41171e-05
4.41255e-05
4.41184e-05
4.41273e-05
4.41195e-05
4.41278e-05
4.41294e-05
4.41193e-05
4.41254e-05
4.41179e-05
4.41162e-05
4.41221e-05
2.316e-05
2.13832e-05
2.16794e-05
2.39419e-05
2.7656e-05
3.2098e-05
3.655e-05
4.0568e-05
4.39373e-05
4.65474e-05
4.82933e-05
4.90747e-05
4.88587e-05
4.772e-05
4.57661e-05
4.30146e-05
3.95267e-05
3.53963e-05
3.08737e-05
2.64938e-05
2.39292e-05
2.93323e-05
3.52311e-05
4.05348e-05
4.46144e-05
4.74012e-05
4.91761e-05
5.02524e-05
5.07983e-05
5.0689e-05
4.95169e-05
4.69602e-05
4.309e-05
3.82901e-05
3.30495e-05
2.78039e-05
2.31882e-05
1.99455e-05
1.87511e-05
2.004e-05
3.64296e-05
4.12221e-05
4.46062e-05
4.67552e-05
4.79915e-05
4.86052e-05
4.88865e-05
4.90197e-05
4.89542e-05
4.81377e-05
4.55808e-05
4.08725e-05