/*--------------------------------*- C++ -*----------------------------------*\
| =========                 |                                                 |
| \\      /  F ield         | OpenFOAM: The Open Source CFD Toolbox           |
|  \\    /   O peration     | Version:  2.4.0                                 |
|   \\  /    A nd           | Web:      www.OpenFOAM.org                      |
|    \\/     M anipulation  |                                                 |
\*---------------------------------------------------------------------------*/
FoamFile
{
    version     2.0;
    format      ascii;
    class       volScalarField;
    location    "140";
    object      nut;
}
// * * * * * * * * * * * * * * * * * * * * * * * * * * * * * * * * * * * * * //

dimensions      [0 2 -1 0 0 0 0];

internalField   nonuniform List<scalar> 
283312
(
2.17694e-06
1.94874e-06
1.88182e-06
1.99303e-06
2.26656e-06
2.65988e-06
3.11092e-06
3.55906e-06
3.96321e-06
4.29777e-06
4.54346e-06
4.68393e-06
4.70997e-06
4.62474e-06
4.43614e-06
4.15157e-06
3.78835e-06
3.3711e-06
2.93126e-06
2.50945e-06
1.70167e-06
2.18055e-06
2.79112e-06
3.42547e-06
3.98567e-06
4.41836e-06
4.72049e-06
4.91476e-06
5.02372e-06
5.04146e-06
4.92143e-06
4.61509e-06
4.12665e-06
3.52204e-06
2.8968e-06
2.31798e-06
1.84354e-06
1.51587e-06
1.36278e-06
1.40985e-06
2.89163e-06
3.60051e-06
4.15609e-06
4.53663e-06
4.7703e-06
4.89678e-06
4.95617e-06
4.98179e-06
4.97623e-06
4.86412e-06
4.50078e-06
3.83873e-06
2.99808e-06
2.1658e-06
1.49723e-06
1.09031e-06
9.54009e-07
1.07692e-06
1.46787e-06
2.10019e-06
3.95181e-06
4.3836e-06
4.63856e-06
4.76868e-06
4.82571e-06
4.84789e-06
4.85898e-06
4.86854e-06
4.87623e-06
4.74586e-06
4.23476e-06
3.40866e-06
2.54849e-06
1.85378e-06
1.39932e-06
1.23392e-06
1.39208e-06
1.86567e-06
2.5617e-06
3.30577e-06
4.46153e-06
4.65424e-06
4.741e-06
4.77485e-06
4.78763e-06
4.79404e-06
4.8011e-06
4.8114e-06
4.86517e-06
4.6842e-06
3.92114e-06
2.91629e-06
2.06132e-06
1.48831e-06
1.26744e-06
1.43604e-06
1.97186e-06
2.73533e-06
3.49756e-06
4.08574e-06
4.64344e-06
4.71553e-06
4.74085e-06
4.74815e-06
4.7512e-06
4.75471e-06
4.76148e-06
4.77222e-06
4.83672e-06
4.45387e-06
3.45013e-06
2.4692e-06
1.81037e-06
1.48621e-06
1.5321e-06
1.9871e-06
2.73702e-06
3.51682e-06
4.1101e-06
4.46571e-06
4.66361e-06
4.70779e-06
4.72132e-06
4.72563e-06
4.7289e-06
4.73286e-06
4.73946e-06
4.74963e-06
4.81037e-06
4.18619e-06
3.0493e-06
2.10724e-06
1.5022e-06
1.24062e-06
1.37518e-06
1.95139e-06
2.82836e-06
3.66829e-06
4.23817e-06
4.53553e-06
4.68474e-06
4.70617e-06
4.71167e-06
4.71328e-06
4.71514e-06
4.71817e-06
4.72352e-06
4.73209e-06
4.7412e-06
4.00239e-06
2.9572e-06
2.1348e-06
1.59539e-06
1.39135e-06
1.63952e-06
2.32735e-06
3.21962e-06
3.96631e-06
4.40908e-06
4.60972e-06
4.69514e-06
4.70237e-06
4.70417e-06
4.70527e-06
4.70696e-06
4.70968e-06
4.71393e-06
4.72147e-06
4.72872e-06
3.87603e-06
2.7806e-06
1.95121e-06
1.53073e-06
1.61798e-06
2.17616e-06
3.0154e-06
3.80569e-06
4.3207e-06
4.56984e-06
4.66481e-06
4.69668e-06
4.69922e-06
4.6999e-06
4.70053e-06
4.70165e-06
4.70368e-06
4.70687e-06
4.71323e-06
4.71793e-06
3.73817e-06
2.61929e-06
1.889e-06
1.6812e-06
2.05518e-06
2.8312e-06
3.64671e-06
4.22326e-06
4.52275e-06
4.64462e-06
4.68521e-06
4.69508e-06
4.69647e-06
4.69699e-06
4.69758e-06
4.69848e-06
4.70006e-06
4.70238e-06
4.70745e-06
4.70957e-06
3.62108e-06
2.49495e-06
1.83387e-06
1.8143e-06
2.4204e-06
3.28328e-06
3.99512e-06
4.41064e-06
4.59827e-06
4.66759e-06
4.68924e-06
4.69396e-06
4.695e-06
4.69539e-06
4.69579e-06
4.6964e-06
4.6975e-06
4.69923e-06
4.70314e-06
4.70437e-06
3.53216e-06
2.42314e-06
1.85259e-06
1.9553e-06
2.65802e-06
3.51217e-06
4.1419e-06
4.47958e-06
4.62324e-06
4.67425e-06
4.68981e-06
4.69305e-06
4.694e-06
4.69435e-06
4.69469e-06
4.69514e-06
4.6959e-06
4.69713e-06
4.69984e-06
4.70004e-06
3.47749e-06
2.33426e-06
1.75929e-06
1.95345e-06
2.73392e-06
3.59402e-06
4.19315e-06
4.50265e-06
4.63104e-06
4.67586e-06
4.68941e-06
4.69256e-06
4.69344e-06
4.69375e-06
4.694e-06
4.6943e-06
4.69479e-06
4.69564e-06
4.69745e-06
4.69904e-06
3.46117e-06
2.37857e-06
1.85834e-06
2.05684e-06
2.80991e-06
3.63749e-06
4.21404e-06
4.51122e-06
4.63385e-06
4.67635e-06
4.68913e-06
4.69234e-06
4.69311e-06
4.69337e-06
4.69357e-06
4.69379e-06
4.69411e-06
4.69469e-06
4.69584e-06
4.69721e-06
3.42059e-06
2.26111e-06
1.79049e-06
2.10178e-06
2.90148e-06
3.7135e-06
4.25697e-06
4.53002e-06
4.64051e-06
4.6782e-06
4.68938e-06
4.69251e-06
4.69297e-06
4.69314e-06
4.69328e-06
4.69343e-06
4.69362e-06
4.69387e-06
4.69428e-06
4.69402e-06
3.63907e-06
2.37642e-06
1.95803e-06
2.38245e-06
3.20314e-06
3.9372e-06
4.37897e-06
4.58236e-06
4.65907e-06
4.68375e-06
4.69073e-06
4.69284e-06
4.69292e-06
4.69299e-06
4.69309e-06
4.69321e-06
4.69336e-06
4.69354e-06
4.69379e-06
4.69367e-06
4.56866e-06
4.49656e-06
4.52882e-06
4.59209e-06
4.63549e-06
4.65556e-06
4.67305e-06
4.68468e-06
4.69014e-06
4.6921e-06
4.69268e-06
4.69278e-06
4.69282e-06
4.69287e-06
4.69295e-06
4.69304e-06
4.69314e-06
4.69325e-06
4.69339e-06
4.69359e-06
4.69046e-06
4.68893e-06
4.68992e-06
4.69148e-06
4.69232e-06
4.69244e-06
4.69258e-06
4.69272e-06
4.69278e-06
4.69278e-06
4.69277e-06
4.69271e-06
4.69274e-06
4.69278e-06
4.69284e-06
4.69291e-06
4.693e-06
4.69308e-06
4.69316e-06
4.69321e-06
4.69319e-06
4.6931e-06
4.69309e-06
4.69313e-06
4.6931e-06
4.69304e-06
4.69295e-06
4.69287e-06
4.69279e-06
4.69274e-06
4.69271e-06
4.69265e-06
4.69267e-06
4.6927e-06
4.69275e-06
4.69281e-06
4.69287e-06
4.69294e-06
4.69301e-06
4.69306e-06
4.69306e-06
4.693e-06
4.69296e-06
4.69295e-06
4.69295e-06
4.69292e-06
4.69285e-06
4.69278e-06
4.69272e-06
4.69267e-06
4.69265e-06
4.6926e-06
4.69261e-06
4.69264e-06
4.69268e-06
4.69272e-06
4.69278e-06
4.69283e-06
4.69288e-06
4.69291e-06
4.69292e-06
4.69289e-06
4.69287e-06
4.69287e-06
4.69285e-06
4.69281e-06
4.69276e-06
4.69271e-06
4.69266e-06
4.69262e-06
4.6926e-06
4.69255e-06
4.69256e-06
4.69258e-06
4.69261e-06
4.69265e-06
4.69269e-06
4.69274e-06
4.69278e-06
4.69281e-06
4.69282e-06
4.6928e-06
4.69278e-06
4.69277e-06
4.69276e-06
4.69274e-06
4.6927e-06
4.69265e-06
4.69261e-06
4.69258e-06
4.69256e-06
4.69251e-06
4.69251e-06
4.69253e-06
4.69255e-06
4.69258e-06
4.69262e-06
4.69266e-06
4.69269e-06
4.69272e-06
4.69273e-06
4.69273e-06
4.69272e-06
4.69271e-06
4.6927e-06
4.69267e-06
4.69264e-06
4.6926e-06
4.69256e-06
4.69253e-06
4.69252e-06
4.69247e-06
4.69247e-06
4.69248e-06
4.6925e-06
4.69253e-06
4.69256e-06
4.69259e-06
4.69262e-06
4.69265e-06
4.69266e-06
4.69266e-06
4.69265e-06
4.69264e-06
4.69263e-06
4.69261e-06
4.69259e-06
4.69255e-06
4.69252e-06
4.69249e-06
4.69248e-06
4.69243e-06
4.69243e-06
4.69244e-06
4.69245e-06
4.69247e-06
4.6925e-06
4.69253e-06
4.69255e-06
4.69258e-06
4.69259e-06
4.69259e-06
4.69259e-06
4.69259e-06
4.69258e-06
4.69256e-06
4.69254e-06
4.69251e-06
4.69248e-06
4.69246e-06
4.69244e-06
4.6924e-06
4.69239e-06
4.6924e-06
4.69241e-06
4.69243e-06
4.69245e-06
4.69247e-06
4.6925e-06
4.69252e-06
4.69253e-06
4.69254e-06
4.69254e-06
4.69254e-06
4.69253e-06
4.69251e-06
4.69249e-06
4.69247e-06
4.69244e-06
4.69242e-06
4.69241e-06
4.69236e-06
4.69236e-06
4.69236e-06
4.69237e-06
4.69239e-06
4.6924e-06
4.69242e-06
4.69245e-06
4.69246e-06
4.69248e-06
4.69249e-06
4.69249e-06
4.69249e-06
4.69248e-06
4.69247e-06
4.69245e-06
4.69243e-06
4.69241e-06
4.69239e-06
4.69237e-06
4.69233e-06
4.69233e-06
4.69233e-06
4.69234e-06
4.69235e-06
4.69236e-06
4.69238e-06
4.6924e-06
4.69242e-06
4.69243e-06
4.69244e-06
4.69244e-06
4.69244e-06
4.69244e-06
4.69243e-06
4.69242e-06
4.6924e-06
4.69238e-06
4.69236e-06
4.69234e-06
4.69231e-06
4.6923e-06
4.6923e-06
4.69231e-06
4.69231e-06
4.69233e-06
4.69234e-06
4.69236e-06
4.69238e-06
4.69239e-06
4.6924e-06
4.6924e-06
4.69241e-06
4.6924e-06
4.6924e-06
4.69238e-06
4.69237e-06
4.69235e-06
4.69233e-06
4.69232e-06
4.69228e-06
4.69228e-06
4.69228e-06
4.69228e-06
4.69229e-06
4.6923e-06
4.69231e-06
4.69232e-06
4.69234e-06
4.69235e-06
4.69236e-06
4.69237e-06
4.69237e-06
4.69237e-06
4.69236e-06
4.69235e-06
4.69234e-06
4.69232e-06
4.69231e-06
4.69229e-06
4.69226e-06
4.69225e-06
4.69225e-06
4.69225e-06
4.69226e-06
4.69227e-06
4.69228e-06
4.69229e-06
4.69231e-06
4.69232e-06
4.69233e-06
4.69234e-06
4.69234e-06
4.69234e-06
4.69233e-06
4.69232e-06
4.69231e-06
4.6923e-06
4.69228e-06
4.69227e-06
4.69224e-06
4.69223e-06
4.69223e-06
4.69223e-06
4.69224e-06
4.69224e-06
4.69225e-06
4.69227e-06
4.69228e-06
4.69229e-06
4.6923e-06
4.69231e-06
4.69231e-06
4.69231e-06
4.69231e-06
4.6923e-06
4.69229e-06
4.69228e-06
4.69226e-06
4.69225e-06
4.69222e-06
4.69222e-06
4.69221e-06
4.69221e-06
4.69222e-06
4.69222e-06
4.69223e-06
4.69224e-06
4.69225e-06
4.69227e-06
4.69228e-06
4.69228e-06
4.69229e-06
4.69229e-06
4.69229e-06
4.69228e-06
4.69227e-06
4.69226e-06
4.69225e-06
4.69223e-06
4.69221e-06
4.6922e-06
4.6922e-06
4.6922e-06
4.6922e-06
4.69221e-06
4.69221e-06
4.69222e-06
4.69223e-06
4.69225e-06
4.69225e-06
4.69226e-06
4.69227e-06
4.69227e-06
4.69227e-06
4.69226e-06
4.69225e-06
4.69224e-06
4.69223e-06
4.69222e-06
4.6922e-06
4.69219e-06
4.69219e-06
4.69218e-06
4.69219e-06
4.69219e-06
4.6922e-06
4.69221e-06
4.69222e-06
4.69223e-06
4.69224e-06
4.69224e-06
4.69225e-06
4.69225e-06
4.69225e-06
4.69225e-06
4.69224e-06
4.69223e-06
4.69222e-06
4.69221e-06
4.69219e-06
4.69218e-06
4.69218e-06
4.69217e-06
4.69217e-06
4.69218e-06
4.69218e-06
4.69219e-06
4.6922e-06
4.69221e-06
4.69222e-06
4.69223e-06
4.69224e-06
4.69224e-06
4.69224e-06
4.69223e-06
4.69223e-06
4.69222e-06
4.69221e-06
4.6922e-06
4.69218e-06
4.69217e-06
4.69217e-06
4.69216e-06
4.69216e-06
4.69217e-06
4.69217e-06
4.69218e-06
4.69219e-06
4.6922e-06
4.69221e-06
4.69222e-06
4.69222e-06
4.69223e-06
4.69223e-06
4.69222e-06
4.69222e-06
4.69221e-06
4.6922e-06
4.69219e-06
4.69218e-06
4.69217e-06
4.69216e-06
4.69216e-06
4.69216e-06
4.69216e-06
4.69217e-06
4.69218e-06
4.69218e-06
4.69219e-06
4.6922e-06
4.69221e-06
4.69222e-06
4.69222e-06
4.69222e-06
4.69222e-06
4.69221e-06
4.6922e-06
4.69219e-06
4.69218e-06
4.69218e-06
4.69218e-06
4.69217e-06
4.69217e-06
4.69217e-06
4.69217e-06
4.69218e-06
4.69218e-06
4.69219e-06
4.6922e-06
4.69221e-06
4.69222e-06
4.69222e-06
4.69223e-06
4.69223e-06
4.69222e-06
4.69222e-06
4.69221e-06
4.6922e-06
4.69219e-06
4.69438e-06
4.69472e-06
4.69432e-06
4.69426e-06
4.69475e-06
4.69438e-06
4.6943e-06
4.69492e-06
4.69446e-06
4.69504e-06
4.69449e-06
4.69511e-06
4.69452e-06
4.69512e-06
4.69525e-06
4.6945e-06
4.69496e-06
4.69442e-06
4.69431e-06
4.69481e-06
2.04572e-06
1.84491e-06
1.8181e-06
1.97429e-06
2.28931e-06
2.71485e-06
3.18276e-06
3.63536e-06
4.03539e-06
4.35989e-06
4.59092e-06
4.71261e-06
4.71629e-06
4.60601e-06
4.39206e-06
4.08083e-06
3.69185e-06
3.25225e-06
2.79693e-06
2.37092e-06
1.7146e-06
2.229e-06
2.86235e-06
3.50191e-06
4.05282e-06
4.4688e-06
4.75493e-06
4.93625e-06
5.03495e-06
5.04299e-06
4.91122e-06
4.59062e-06
4.08771e-06
3.47088e-06
2.83512e-06
2.24952e-06
1.77357e-06
1.45234e-06
1.31623e-06
1.3918e-06
2.94606e-06
3.65331e-06
4.19882e-06
4.56677e-06
4.78879e-06
4.906e-06
4.96024e-06
4.98354e-06
4.97678e-06
4.86418e-06
4.49813e-06
3.82965e-06
2.98046e-06
2.1402e-06
1.46745e-06
1.06268e-06
9.36007e-07
1.07766e-06
1.49512e-06
2.15196e-06
4.00244e-06
4.41891e-06
4.66046e-06
4.78118e-06
4.8328e-06
4.85272e-06
4.86318e-06
4.87277e-06
4.88183e-06
4.76407e-06
4.26361e-06
3.4334e-06
2.55828e-06
1.84958e-06
1.39216e-06
1.23897e-06
1.42069e-06
1.91984e-06
2.63101e-06
3.37377e-06
4.49204e-06
4.67206e-06
4.75148e-06
4.7818e-06
4.79327e-06
4.7993e-06
4.80641e-06
4.817e-06
4.88028e-06
4.73982e-06
4.00045e-06
2.98425e-06
2.10343e-06
1.51309e-06
1.29447e-06
1.48314e-06
2.04245e-06
2.81491e-06
3.56754e-06
4.13654e-06
4.65995e-06
4.7256e-06
4.74812e-06
4.75448e-06
4.75741e-06
4.76098e-06
4.76788e-06
4.77884e-06
4.85473e-06
4.50565e-06
3.50676e-06
2.50659e-06
1.8243e-06
1.49232e-06
1.55713e-06
2.04318e-06
2.81084e-06
3.58462e-06
4.15878e-06
4.49553e-06
4.67544e-06
4.71606e-06
4.72845e-06
4.73251e-06
4.73576e-06
4.73972e-06
4.74637e-06
4.75667e-06
4.82834e-06
4.20193e-06
3.05303e-06
2.10802e-06
1.49731e-06
1.24039e-06
1.40235e-06
2.01567e-06
2.90769e-06
3.73276e-06
4.27834e-06
4.55756e-06
4.69368e-06
4.71364e-06
4.71881e-06
4.72042e-06
4.72234e-06
4.72539e-06
4.73076e-06
4.73936e-06
4.74843e-06
3.96689e-06
2.90244e-06
2.09577e-06
1.57509e-06
1.39159e-06
1.67112e-06
2.38933e-06
3.28636e-06
4.01442e-06
4.43637e-06
4.62449e-06
4.70308e-06
4.70984e-06
4.71158e-06
4.71269e-06
4.7144e-06
4.71712e-06
4.72135e-06
4.72889e-06
4.736e-06
3.84248e-06
2.73405e-06
1.91953e-06
1.52626e-06
1.64157e-06
2.22711e-06
3.07767e-06
3.85607e-06
4.35137e-06
4.58666e-06
4.67519e-06
4.70447e-06
4.70678e-06
4.70744e-06
4.70808e-06
4.70921e-06
4.71125e-06
4.71442e-06
4.72079e-06
4.72529e-06
3.70224e-06
2.57699e-06
1.86245e-06
1.68139e-06
2.08745e-06
2.88391e-06
3.69677e-06
4.2574e-06
4.54257e-06
4.65663e-06
4.69405e-06
4.7029e-06
4.70414e-06
4.70463e-06
4.70522e-06
4.70612e-06
4.7077e-06
4.71e-06
4.71508e-06
4.71696e-06
3.58322e-06
2.45597e-06
1.81162e-06
1.81891e-06
2.45407e-06
3.32929e-06
4.03382e-06
4.43586e-06
4.61361e-06
4.67798e-06
4.69769e-06
4.70179e-06
4.70271e-06
4.70307e-06
4.70348e-06
4.70408e-06
4.70519e-06
4.70691e-06
4.71081e-06
4.71183e-06
3.4928e-06
2.38898e-06
1.8369e-06
1.96414e-06
2.69149e-06
3.55333e-06
4.17495e-06
4.50108e-06
4.63685e-06
4.68402e-06
4.6981e-06
4.70089e-06
4.70173e-06
4.70206e-06
4.7024e-06
4.70285e-06
4.70361e-06
4.70483e-06
4.70753e-06
4.70756e-06
3.43773e-06
2.29985e-06
1.7442e-06
1.96446e-06
2.76771e-06
3.63335e-06
4.22404e-06
4.52274e-06
4.64399e-06
4.68541e-06
4.69767e-06
4.70041e-06
4.70119e-06
4.70148e-06
4.70172e-06
4.70203e-06
4.70252e-06
4.70336e-06
4.70516e-06
4.70666e-06
3.42187e-06
2.34906e-06
1.84661e-06
2.06836e-06
2.84265e-06
3.67553e-06
4.244e-06
4.53079e-06
4.64655e-06
4.68581e-06
4.69737e-06
4.70019e-06
4.70086e-06
4.7011e-06
4.7013e-06
4.70153e-06
4.70184e-06
4.70243e-06
4.70357e-06
4.70487e-06
3.37971e-06
2.22807e-06
1.7794e-06
2.11616e-06
2.93574e-06
3.75104e-06
4.28573e-06
4.54865e-06
4.65274e-06
4.68747e-06
4.69756e-06
4.70031e-06
4.70072e-06
4.70088e-06
4.70102e-06
4.70117e-06
4.70136e-06
4.7016e-06
4.70202e-06
4.70177e-06
3.60311e-06
2.33107e-06
1.94207e-06
2.4013e-06
3.24162e-06
3.97394e-06
4.40456e-06
4.59844e-06
4.66998e-06
4.69251e-06
4.69875e-06
4.70058e-06
4.70065e-06
4.70073e-06
4.70083e-06
4.70095e-06
4.7011e-06
4.70127e-06
4.70152e-06
4.7014e-06
4.5713e-06
4.50152e-06
4.53816e-06
4.60273e-06
4.64523e-06
4.66496e-06
4.68208e-06
4.69312e-06
4.69817e-06
4.69993e-06
4.70044e-06
4.70051e-06
4.70055e-06
4.70061e-06
4.70069e-06
4.70078e-06
4.70088e-06
4.70099e-06
4.70113e-06
4.70133e-06
4.69808e-06
4.69664e-06
4.69773e-06
4.6993e-06
4.70009e-06
4.70021e-06
4.70034e-06
4.70047e-06
4.70052e-06
4.70051e-06
4.7005e-06
4.70044e-06
4.70047e-06
4.70052e-06
4.70058e-06
4.70065e-06
4.70074e-06
4.70082e-06
4.7009e-06
4.70095e-06
4.70093e-06
4.70083e-06
4.70082e-06
4.70086e-06
4.70083e-06
4.70077e-06
4.70068e-06
4.70059e-06
4.70052e-06
4.70047e-06
4.70044e-06
4.70038e-06
4.7004e-06
4.70044e-06
4.70049e-06
4.70055e-06
4.70061e-06
4.70068e-06
4.70075e-06
4.7008e-06
4.7008e-06
4.70074e-06
4.70069e-06
4.70068e-06
4.70068e-06
4.70065e-06
4.70058e-06
4.70051e-06
4.70045e-06
4.7004e-06
4.70038e-06
4.70033e-06
4.70035e-06
4.70037e-06
4.70041e-06
4.70046e-06
4.70052e-06
4.70057e-06
4.70062e-06
4.70065e-06
4.70065e-06
4.70063e-06
4.7006e-06
4.7006e-06
4.70058e-06
4.70054e-06
4.70049e-06
4.70044e-06
4.70039e-06
4.70035e-06
4.70033e-06
4.70028e-06
4.70029e-06
4.70032e-06
4.70035e-06
4.70039e-06
4.70043e-06
4.70048e-06
4.70052e-06
4.70055e-06
4.70056e-06
4.70054e-06
4.70052e-06
4.70051e-06
4.70049e-06
4.70047e-06
4.70043e-06
4.70038e-06
4.70034e-06
4.70031e-06
4.70029e-06
4.70024e-06
4.70025e-06
4.70026e-06
4.70029e-06
4.70032e-06
4.70036e-06
4.7004e-06
4.70043e-06
4.70046e-06
4.70047e-06
4.70046e-06
4.70045e-06
4.70044e-06
4.70043e-06
4.7004e-06
4.70037e-06
4.70033e-06
4.7003e-06
4.70027e-06
4.70025e-06
4.7002e-06
4.7002e-06
4.70022e-06
4.70024e-06
4.70026e-06
4.70029e-06
4.70033e-06
4.70036e-06
4.70038e-06
4.7004e-06
4.70039e-06
4.70038e-06
4.70038e-06
4.70037e-06
4.70035e-06
4.70032e-06
4.70029e-06
4.70025e-06
4.70023e-06
4.70021e-06
4.70016e-06
4.70016e-06
4.70017e-06
4.70019e-06
4.70021e-06
4.70024e-06
4.70026e-06
4.70029e-06
4.70031e-06
4.70033e-06
4.70033e-06
4.70033e-06
4.70032e-06
4.70031e-06
4.70029e-06
4.70027e-06
4.70024e-06
4.70021e-06
4.70019e-06
4.70017e-06
4.70013e-06
4.70013e-06
4.70013e-06
4.70015e-06
4.70016e-06
4.70019e-06
4.70021e-06
4.70023e-06
4.70025e-06
4.70027e-06
4.70027e-06
4.70027e-06
4.70027e-06
4.70026e-06
4.70025e-06
4.70023e-06
4.7002e-06
4.70018e-06
4.70015e-06
4.70014e-06
4.7001e-06
4.70009e-06
4.7001e-06
4.70011e-06
4.70012e-06
4.70014e-06
4.70016e-06
4.70018e-06
4.7002e-06
4.70021e-06
4.70022e-06
4.70022e-06
4.70022e-06
4.70022e-06
4.7002e-06
4.70019e-06
4.70016e-06
4.70014e-06
4.70012e-06
4.70011e-06
4.70007e-06
4.70006e-06
4.70007e-06
4.70007e-06
4.70008e-06
4.7001e-06
4.70012e-06
4.70014e-06
4.70015e-06
4.70017e-06
4.70017e-06
4.70018e-06
4.70018e-06
4.70017e-06
4.70016e-06
4.70015e-06
4.70013e-06
4.70011e-06
4.70009e-06
4.70008e-06
4.70004e-06
4.70004e-06
4.70004e-06
4.70004e-06
4.70005e-06
4.70006e-06
4.70008e-06
4.7001e-06
4.70011e-06
4.70012e-06
4.70013e-06
4.70014e-06
4.70014e-06
4.70014e-06
4.70013e-06
4.70012e-06
4.7001e-06
4.70008e-06
4.70006e-06
4.70005e-06
4.70002e-06
4.70001e-06
4.70001e-06
4.70001e-06
4.70002e-06
4.70003e-06
4.70004e-06
4.70006e-06
4.70007e-06
4.70009e-06
4.7001e-06
4.7001e-06
4.7001e-06
4.7001e-06
4.7001e-06
4.70009e-06
4.70007e-06
4.70005e-06
4.70004e-06
4.70003e-06
4.69999e-06
4.69999e-06
4.69999e-06
4.69999e-06
4.69999e-06
4.7e-06
4.70001e-06
4.70003e-06
4.70004e-06
4.70005e-06
4.70006e-06
4.70007e-06
4.70007e-06
4.70007e-06
4.70007e-06
4.70006e-06
4.70005e-06
4.70003e-06
4.70002e-06
4.7e-06
4.69997e-06
4.69997e-06
4.69997e-06
4.69997e-06
4.69997e-06
4.69998e-06
4.69999e-06
4.7e-06
4.70001e-06
4.70003e-06
4.70004e-06
4.70004e-06
4.70005e-06
4.70005e-06
4.70004e-06
4.70003e-06
4.70002e-06
4.70001e-06
4.7e-06
4.69998e-06
4.69996e-06
4.69995e-06
4.69995e-06
4.69995e-06
4.69995e-06
4.69996e-06
4.69997e-06
4.69998e-06
4.69999e-06
4.7e-06
4.70001e-06
4.70002e-06
4.70002e-06
4.70002e-06
4.70002e-06
4.70001e-06
4.7e-06
4.69999e-06
4.69998e-06
4.69997e-06
4.69994e-06
4.69994e-06
4.69993e-06
4.69993e-06
4.69993e-06
4.69994e-06
4.69995e-06
4.69996e-06
4.69997e-06
4.69998e-06
4.69999e-06
4.7e-06
4.7e-06
4.7e-06
4.7e-06
4.69999e-06
4.69999e-06
4.69997e-06
4.69996e-06
4.69995e-06
4.69993e-06
4.69992e-06
4.69992e-06
4.69992e-06
4.69992e-06
4.69992e-06
4.69993e-06
4.69994e-06
4.69995e-06
4.69996e-06
4.69997e-06
4.69998e-06
4.69998e-06
4.69999e-06
4.69998e-06
4.69998e-06
4.69997e-06
4.69996e-06
4.69995e-06
4.69994e-06
4.69992e-06
4.69991e-06
4.69991e-06
4.69991e-06
4.69991e-06
4.69991e-06
4.69992e-06
4.69993e-06
4.69994e-06
4.69995e-06
4.69996e-06
4.69996e-06
4.69997e-06
4.69997e-06
4.69997e-06
4.69997e-06
4.69996e-06
4.69995e-06
4.69994e-06
4.69993e-06
4.69991e-06
4.69991e-06
4.6999e-06
4.6999e-06
4.6999e-06
4.6999e-06
4.69991e-06
4.69992e-06
4.69993e-06
4.69994e-06
4.69995e-06
4.69995e-06
4.69996e-06
4.69996e-06
4.69996e-06
4.69996e-06
4.69995e-06
4.69994e-06
4.69993e-06
4.69992e-06
4.69991e-06
4.6999e-06
4.6999e-06
4.69989e-06
4.69989e-06
4.6999e-06
4.6999e-06
4.69991e-06
4.69992e-06
4.69993e-06
4.69994e-06
4.69995e-06
4.69995e-06
4.69995e-06
4.69995e-06
4.69995e-06
4.69994e-06
4.69994e-06
4.69993e-06
4.69992e-06
4.69992e-06
4.69991e-06
4.6999e-06
4.6999e-06
4.6999e-06
4.6999e-06
4.69991e-06
4.69992e-06
4.69993e-06
4.69994e-06
4.69994e-06
4.69995e-06
4.69996e-06
4.69996e-06
4.69996e-06
4.69996e-06
4.69995e-06
4.69994e-06
4.69993e-06
4.69992e-06
4.70204e-06
4.70233e-06
4.70198e-06
4.70193e-06
4.70238e-06
4.70203e-06
4.70197e-06
4.70254e-06
4.70211e-06
4.70265e-06
4.70214e-06
4.70272e-06
4.70217e-06
4.70272e-06
4.70284e-06
4.70214e-06
4.70256e-06
4.70207e-06
4.70198e-06
4.70242e-06
1.92424e-06
1.75513e-06
1.77093e-06
1.97226e-06
2.32698e-06
2.78023e-06
3.26116e-06
3.71535e-06
4.10901e-06
4.42171e-06
4.63668e-06
4.7385e-06
4.71903e-06
4.58327e-06
4.34295e-06
4.00494e-06
3.59098e-06
3.13085e-06
2.6631e-06
2.23719e-06
1.74447e-06
2.29191e-06
2.94331e-06
3.58324e-06
4.12129e-06
4.51965e-06
4.78923e-06
4.95732e-06
5.04559e-06
5.04383e-06
4.90029e-06
4.56568e-06
4.04902e-06
3.42115e-06
2.77703e-06
2.18649e-06
1.71129e-06
1.39926e-06
1.28311e-06
1.38967e-06
3.01323e-06
3.7142e-06
4.24583e-06
4.59866e-06
4.80768e-06
4.91523e-06
4.96439e-06
4.98547e-06
4.97758e-06
4.86533e-06
4.49815e-06
3.82465e-06
2.96786e-06
2.12051e-06
1.44479e-06
1.04414e-06
9.29694e-07
1.0932e-06
1.5392e-06
2.21945e-06
4.05696e-06
4.45574e-06
4.68265e-06
4.79357e-06
4.83986e-06
4.85765e-06
4.86755e-06
4.8772e-06
4.88766e-06
4.78613e-06
4.30097e-06
3.46823e-06
2.57697e-06
1.8529e-06
1.3928e-06
1.25346e-06
1.4606e-06
1.9857e-06
2.71013e-06
3.44831e-06
4.5231e-06
4.68986e-06
4.76187e-06
4.78877e-06
4.79903e-06
4.80474e-06
4.81191e-06
4.82281e-06
4.89677e-06
4.80754e-06
4.10137e-06
3.07521e-06
2.16521e-06
1.55356e-06
1.33527e-06
1.54349e-06
2.12456e-06
2.90255e-06
3.64193e-06
4.18908e-06
4.67638e-06
4.73563e-06
4.75548e-06
4.76097e-06
4.7638e-06
4.76743e-06
4.77445e-06
4.78564e-06
4.87455e-06
4.57144e-06
3.58474e-06
2.56499e-06
1.85602e-06
1.514e-06
1.59727e-06
2.11258e-06
2.89368e-06
3.65683e-06
4.20886e-06
4.52546e-06
4.68774e-06
4.7246e-06
4.73579e-06
4.73957e-06
4.7428e-06
4.74675e-06
4.75344e-06
4.76388e-06
4.84821e-06
4.2262e-06
3.06889e-06
2.12256e-06
1.50746e-06
1.25743e-06
1.44951e-06
2.09889e-06
2.99967e-06
3.80338e-06
4.32088e-06
4.58042e-06
4.70313e-06
4.7214e-06
4.72617e-06
4.72775e-06
4.72971e-06
4.73279e-06
4.73817e-06
4.74678e-06
4.75583e-06
3.92954e-06
2.84779e-06
2.06003e-06
1.56234e-06
1.40527e-06
1.72084e-06
2.46864e-06
3.36437e-06
4.06791e-06
4.46584e-06
4.64014e-06
4.71132e-06
4.71752e-06
4.71916e-06
4.72029e-06
4.722e-06
4.72471e-06
4.72892e-06
4.73647e-06
4.74342e-06
3.80722e-06
2.68708e-06
1.8892e-06
1.52595e-06
1.67426e-06
2.29025e-06
3.15009e-06
3.91215e-06
4.38452e-06
4.60449e-06
4.68602e-06
4.71243e-06
4.71451e-06
4.71513e-06
4.71579e-06
4.71693e-06
4.71898e-06
4.72213e-06
4.7285e-06
4.7328e-06
3.66469e-06
2.53463e-06
1.83685e-06
1.68401e-06
2.12453e-06
2.942e-06
3.75038e-06
4.29311e-06
4.56299e-06
4.6689e-06
4.70308e-06
4.71086e-06
4.71196e-06
4.71243e-06
4.71302e-06
4.71392e-06
4.71549e-06
4.71777e-06
4.72285e-06
4.7245e-06
3.54385e-06
2.41722e-06
1.79024e-06
1.82511e-06
2.49007e-06
3.37716e-06
4.07328e-06
4.46117e-06
4.62891e-06
4.68839e-06
4.70624e-06
4.70975e-06
4.71056e-06
4.7109e-06
4.71132e-06
4.71192e-06
4.71303e-06
4.71474e-06
4.71864e-06
4.71945e-06
3.45195e-06
2.35538e-06
1.82202e-06
1.97413e-06
2.72631e-06
3.59523e-06
4.20802e-06
4.52236e-06
4.65032e-06
4.69381e-06
4.7065e-06
4.70888e-06
4.70962e-06
4.70993e-06
4.71027e-06
4.71072e-06
4.71147e-06
4.71269e-06
4.71539e-06
4.71524e-06
3.39657e-06
2.26598e-06
1.72993e-06
1.97651e-06
2.80261e-06
3.67319e-06
4.25483e-06
4.54258e-06
4.65682e-06
4.69498e-06
4.70603e-06
4.7084e-06
4.70909e-06
4.70936e-06
4.7096e-06
4.70991e-06
4.7104e-06
4.71124e-06
4.71304e-06
4.71443e-06
3.38128e-06
2.32031e-06
1.83559e-06
2.08082e-06
2.87643e-06
3.71405e-06
4.27387e-06
4.55011e-06
4.65914e-06
4.6953e-06
4.70572e-06
4.70817e-06
4.70877e-06
4.70899e-06
4.70919e-06
4.70941e-06
4.70973e-06
4.71032e-06
4.71145e-06
4.71269e-06
3.33751e-06
2.1957e-06
1.76915e-06
2.13156e-06
2.97101e-06
3.78899e-06
4.31436e-06
4.56705e-06
4.66486e-06
4.69679e-06
4.70586e-06
4.70826e-06
4.70862e-06
4.70877e-06
4.70891e-06
4.70906e-06
4.70925e-06
4.7095e-06
4.70992e-06
4.70968e-06
3.56566e-06
2.28551e-06
1.92725e-06
2.42175e-06
3.2812e-06
4.01083e-06
4.42988e-06
4.6143e-06
4.68084e-06
4.70134e-06
4.70689e-06
4.70847e-06
4.70854e-06
4.70862e-06
4.70872e-06
4.70884e-06
4.70899e-06
4.70917e-06
4.70942e-06
4.70929e-06
4.57388e-06
4.50675e-06
4.54783e-06
4.61359e-06
4.65509e-06
4.67451e-06
4.69122e-06
4.70169e-06
4.70633e-06
4.7079e-06
4.70835e-06
4.7084e-06
4.70844e-06
4.7085e-06
4.70858e-06
4.70867e-06
4.70878e-06
4.70888e-06
4.70903e-06
4.70922e-06
4.70586e-06
4.70452e-06
4.7057e-06
4.70728e-06
4.70802e-06
4.70813e-06
4.70826e-06
4.70837e-06
4.70841e-06
4.7084e-06
4.70839e-06
4.70833e-06
4.70836e-06
4.70841e-06
4.70847e-06
4.70855e-06
4.70863e-06
4.70871e-06
4.70879e-06
4.70884e-06
4.70882e-06
4.70872e-06
4.70872e-06
4.70875e-06
4.70872e-06
4.70865e-06
4.70856e-06
4.70848e-06
4.7084e-06
4.70835e-06
4.70833e-06
4.70827e-06
4.70829e-06
4.70833e-06
4.70838e-06
4.70844e-06
4.70851e-06
4.70857e-06
4.70864e-06
4.70869e-06
4.70869e-06
4.70863e-06
4.70858e-06
4.70857e-06
4.70857e-06
4.70853e-06
4.70847e-06
4.70839e-06
4.70833e-06
4.70829e-06
4.70827e-06
4.70822e-06
4.70824e-06
4.70827e-06
4.70831e-06
4.70836e-06
4.70841e-06
4.70846e-06
4.70851e-06
4.70854e-06
4.70855e-06
4.70852e-06
4.7085e-06
4.70849e-06
4.70847e-06
4.70843e-06
4.70838e-06
4.70832e-06
4.70828e-06
4.70824e-06
4.70822e-06
4.70817e-06
4.70819e-06
4.70821e-06
4.70824e-06
4.70828e-06
4.70833e-06
4.70837e-06
4.70841e-06
4.70844e-06
4.70845e-06
4.70843e-06
4.70841e-06
4.7084e-06
4.70838e-06
4.70836e-06
4.70831e-06
4.70827e-06
4.70823e-06
4.70819e-06
4.70818e-06
4.70813e-06
4.70814e-06
4.70816e-06
4.70818e-06
4.70821e-06
4.70825e-06
4.70829e-06
4.70832e-06
4.70835e-06
4.70836e-06
4.70835e-06
4.70834e-06
4.70833e-06
4.70832e-06
4.70829e-06
4.70826e-06
4.70822e-06
4.70818e-06
4.70816e-06
4.70814e-06
4.70809e-06
4.7081e-06
4.70811e-06
4.70813e-06
4.70816e-06
4.70819e-06
4.70822e-06
4.70825e-06
4.70827e-06
4.70829e-06
4.70828e-06
4.70828e-06
4.70827e-06
4.70826e-06
4.70824e-06
4.70821e-06
4.70817e-06
4.70814e-06
4.70812e-06
4.7081e-06
4.70805e-06
4.70806e-06
4.70806e-06
4.70808e-06
4.7081e-06
4.70813e-06
4.70816e-06
4.70818e-06
4.7082e-06
4.70822e-06
4.70822e-06
4.70822e-06
4.70821e-06
4.7082e-06
4.70818e-06
4.70816e-06
4.70813e-06
4.7081e-06
4.70808e-06
4.70806e-06
4.70802e-06
4.70802e-06
4.70802e-06
4.70804e-06
4.70806e-06
4.70808e-06
4.7081e-06
4.70813e-06
4.70815e-06
4.70816e-06
4.70816e-06
4.70816e-06
4.70816e-06
4.70815e-06
4.70814e-06
4.70811e-06
4.70809e-06
4.70807e-06
4.70804e-06
4.70803e-06
4.70799e-06
4.70798e-06
4.70799e-06
4.708e-06
4.70801e-06
4.70803e-06
4.70805e-06
4.70807e-06
4.70809e-06
4.70811e-06
4.70811e-06
4.70811e-06
4.70811e-06
4.70811e-06
4.70809e-06
4.70808e-06
4.70805e-06
4.70803e-06
4.70801e-06
4.708e-06
4.70796e-06
4.70795e-06
4.70796e-06
4.70796e-06
4.70798e-06
4.70799e-06
4.70801e-06
4.70803e-06
4.70804e-06
4.70806e-06
4.70807e-06
4.70807e-06
4.70807e-06
4.70806e-06
4.70805e-06
4.70804e-06
4.70802e-06
4.708e-06
4.70798e-06
4.70797e-06
4.70793e-06
4.70793e-06
4.70793e-06
4.70793e-06
4.70794e-06
4.70796e-06
4.70797e-06
4.70799e-06
4.708e-06
4.70802e-06
4.70802e-06
4.70803e-06
4.70803e-06
4.70803e-06
4.70802e-06
4.708e-06
4.70799e-06
4.70797e-06
4.70795e-06
4.70794e-06
4.70791e-06
4.7079e-06
4.7079e-06
4.7079e-06
4.70791e-06
4.70792e-06
4.70794e-06
4.70795e-06
4.70797e-06
4.70798e-06
4.70799e-06
4.70799e-06
4.708e-06
4.70799e-06
4.70799e-06
4.70797e-06
4.70796e-06
4.70794e-06
4.70793e-06
4.70792e-06
4.70788e-06
4.70788e-06
4.70788e-06
4.70788e-06
4.70788e-06
4.70789e-06
4.70791e-06
4.70792e-06
4.70793e-06
4.70795e-06
4.70795e-06
4.70796e-06
4.70796e-06
4.70796e-06
4.70796e-06
4.70795e-06
4.70793e-06
4.70792e-06
4.70791e-06
4.70789e-06
4.70786e-06
4.70786e-06
4.70786e-06
4.70786e-06
4.70786e-06
4.70787e-06
4.70788e-06
4.70789e-06
4.70791e-06
4.70792e-06
4.70793e-06
4.70793e-06
4.70794e-06
4.70794e-06
4.70793e-06
4.70792e-06
4.70791e-06
4.7079e-06
4.70789e-06
4.70787e-06
4.70785e-06
4.70784e-06
4.70784e-06
4.70784e-06
4.70784e-06
4.70785e-06
4.70786e-06
4.70787e-06
4.70788e-06
4.70789e-06
4.7079e-06
4.70791e-06
4.70791e-06
4.70791e-06
4.70791e-06
4.7079e-06
4.70789e-06
4.70788e-06
4.70787e-06
4.70786e-06
4.70783e-06
4.70783e-06
4.70782e-06
4.70782e-06
4.70782e-06
4.70783e-06
4.70784e-06
4.70785e-06
4.70786e-06
4.70787e-06
4.70788e-06
4.70789e-06
4.70789e-06
4.70789e-06
4.70789e-06
4.70788e-06
4.70788e-06
4.70786e-06
4.70785e-06
4.70784e-06
4.70782e-06
4.70781e-06
4.70781e-06
4.70781e-06
4.70781e-06
4.70782e-06
4.70782e-06
4.70783e-06
4.70784e-06
4.70785e-06
4.70786e-06
4.70787e-06
4.70787e-06
4.70788e-06
4.70787e-06
4.70787e-06
4.70786e-06
4.70785e-06
4.70784e-06
4.70783e-06
4.70781e-06
4.7078e-06
4.7078e-06
4.7078e-06
4.7078e-06
4.7078e-06
4.70781e-06
4.70782e-06
4.70783e-06
4.70784e-06
4.70785e-06
4.70786e-06
4.70786e-06
4.70786e-06
4.70786e-06
4.70786e-06
4.70785e-06
4.70784e-06
4.70783e-06
4.70782e-06
4.7078e-06
4.7078e-06
4.70779e-06
4.70779e-06
4.70779e-06
4.70779e-06
4.7078e-06
4.70781e-06
4.70782e-06
4.70783e-06
4.70784e-06
4.70784e-06
4.70785e-06
4.70785e-06
4.70785e-06
4.70785e-06
4.70784e-06
4.70783e-06
4.70782e-06
4.70781e-06
4.7078e-06
4.70779e-06
4.70779e-06
4.70778e-06
4.70778e-06
4.70779e-06
4.70779e-06
4.7078e-06
4.70781e-06
4.70782e-06
4.70783e-06
4.70784e-06
4.70784e-06
4.70785e-06
4.70784e-06
4.70784e-06
4.70783e-06
4.70783e-06
4.70782e-06
4.70781e-06
4.70781e-06
4.7078e-06
4.70779e-06
4.70779e-06
4.70779e-06
4.70779e-06
4.7078e-06
4.70781e-06
4.70782e-06
4.70783e-06
4.70783e-06
4.70784e-06
4.70785e-06
4.70785e-06
4.70785e-06
4.70784e-06
4.70784e-06
4.70783e-06
4.70782e-06
4.70781e-06
4.70985e-06
4.71011e-06
4.70979e-06
4.70976e-06
4.71016e-06
4.70985e-06
4.7098e-06
4.71032e-06
4.70992e-06
4.71042e-06
4.70995e-06
4.71048e-06
4.70998e-06
4.71048e-06
4.71058e-06
4.70994e-06
4.71033e-06
4.70988e-06
4.7098e-06
4.7102e-06
1.81338e-06
1.67986e-06
1.74035e-06
1.98662e-06
2.37895e-06
2.85557e-06
3.34593e-06
3.79877e-06
4.18377e-06
4.48291e-06
4.68044e-06
4.76127e-06
4.7178e-06
4.55606e-06
4.28873e-06
3.92417e-06
3.48633e-06
3.00774e-06
2.53077e-06
2.10924e-06
1.7903e-06
2.36827e-06
3.03318e-06
3.66892e-06
4.19079e-06
4.57043e-06
4.82288e-06
4.9776e-06
5.05544e-06
5.04383e-06
4.88858e-06
4.54031e-06
4.01065e-06
3.37289e-06
2.72212e-06
2.12819e-06
1.65585e-06
1.35569e-06
1.26248e-06
1.40253e-06
3.09183e-06
3.78193e-06
4.29611e-06
4.63164e-06
4.8266e-06
4.92444e-06
4.96863e-06
4.98762e-06
4.97865e-06
4.86768e-06
4.50104e-06
3.8238e-06
2.96006e-06