/*--------------------------------*- C++ -*----------------------------------*\
| =========                 |                                                 |
| \\      /  F ield         | OpenFOAM: The Open Source CFD Toolbox           |
|  \\    /   O peration     | Version:  2.4.0                                 |
|   \\  /    A nd           | Web:      www.OpenFOAM.org                      |
|    \\/     M anipulation  |                                                 |
\*---------------------------------------------------------------------------*/
FoamFile
{
    version     2.0;
    format      ascii;
    class       volScalarField;
    location    "150";
    object      epsilon;
}
// * * * * * * * * * * * * * * * * * * * * * * * * * * * * * * * * * * * * * //

dimensions      [0 2 -3 0 0 0 0];

internalField   nonuniform List<scalar> 
283312
(
2.58882e-05
2.30769e-05
2.17512e-05
2.21962e-05
2.41854e-05
2.71595e-05
3.04519e-05
3.35575e-05
3.62369e-05
3.84045e-05
4.00133e-05
4.10204e-05
4.14162e-05
4.12584e-05
4.0633e-05
3.95723e-05
3.80279e-05
3.58581e-05
3.29406e-05
2.94096e-05
2.32383e-05
2.65183e-05
3.06713e-05
3.46558e-05
3.77501e-05
3.97691e-05
4.09442e-05
4.16102e-05
4.19768e-05
4.20829e-05
4.17845e-05
4.0895e-05
3.93587e-05
3.72436e-05
3.46156e-05
3.14283e-05
2.78638e-05
2.44965e-05
2.215e-05
2.15703e-05
3.22671e-05
3.51502e-05
3.71185e-05
3.83313e-05
3.90254e-05
3.93703e-05
3.95211e-05
3.95888e-05
3.96169e-05
3.9589e-05
3.91253e-05
3.76762e-05
3.50126e-05
3.13715e-05
2.73329e-05
2.38311e-05
2.1904e-05
2.22115e-05
2.46596e-05
2.8337e-05
3.47071e-05
3.60396e-05
3.67794e-05
3.71282e-05
3.72634e-05
3.73314e-05
3.74247e-05
3.7564e-05
3.78164e-05
3.87399e-05
3.95192e-05
3.84875e-05
3.49906e-05
2.99292e-05
2.52496e-05
2.27959e-05
2.32316e-05
2.5895e-05
2.93634e-05
3.24364e-05
3.54647e-05
3.59756e-05
3.61974e-05
3.6288e-05
3.6354e-05
3.64294e-05
3.65464e-05
3.6711e-05
3.72309e-05
3.98241e-05
4.24734e-05
4.20072e-05
3.78539e-05
3.22035e-05
2.78403e-05
2.64436e-05
2.77457e-05
3.02682e-05
3.26807e-05
3.4413e-05
3.54624e-05
3.56311e-05
3.56876e-05
3.5707e-05
3.57436e-05
3.58105e-05
3.5932e-05
3.61059e-05
3.67208e-05
4.0122e-05
4.37272e-05
4.37101e-05
3.90554e-05
3.29816e-05
2.93017e-05
2.89697e-05
3.06084e-05
3.25997e-05
3.41192e-05
3.50202e-05
3.53036e-05
3.53283e-05
3.53419e-05
3.53678e-05
3.54215e-05
3.54956e-05
3.56112e-05
3.57744e-05
3.63543e-05
3.85746e-05
4.13225e-05
4.26496e-05
4.05567e-05
3.58159e-05
3.26475e-05
3.22431e-05
3.31929e-05
3.42143e-05
3.4869e-05
3.51812e-05
3.5148e-05
3.51431e-05
3.51482e-05
3.51655e-05
3.52041e-05
3.52644e-05
3.53599e-05
3.55042e-05
3.57603e-05
3.50188e-05
3.41234e-05
3.32262e-05
3.23024e-05
3.16655e-05
3.20078e-05
3.31194e-05
3.41636e-05
3.47787e-05
3.50448e-05
3.51276e-05
3.50112e-05
3.50126e-05
3.50239e-05
3.50473e-05
3.50842e-05
3.51382e-05
3.52147e-05
3.53423e-05
3.55508e-05
3.40654e-05
3.14034e-05
2.77702e-05
2.62137e-05
2.79424e-05
3.07448e-05
3.29771e-05
3.42279e-05
3.47694e-05
3.49553e-05
3.50021e-05
3.49377e-05
3.49429e-05
3.49527e-05
3.49699e-05
3.49964e-05
3.50386e-05
3.50979e-05
3.52074e-05
3.53793e-05
3.37204e-05
3.12039e-05
2.7281e-05
2.56164e-05
2.76292e-05
3.07539e-05
3.30347e-05
3.42214e-05
3.47133e-05
3.48809e-05
3.49266e-05
3.48917e-05
3.48984e-05
3.49084e-05
3.49243e-05
3.49461e-05
3.49797e-05
3.50243e-05
3.5113e-05
3.52449e-05
3.34503e-05
3.11172e-05
2.71063e-05
2.59387e-05
2.83008e-05
3.12901e-05
3.33003e-05
3.43011e-05
3.47062e-05
3.48428e-05
3.48812e-05
3.48665e-05
3.4872e-05
3.48796e-05
3.48914e-05
3.49074e-05
3.49326e-05
3.49674e-05
3.50374e-05
3.51542e-05
3.3244e-05
3.15153e-05
2.80564e-05
2.72208e-05
2.94336e-05
3.19768e-05
3.36125e-05
3.4407e-05
3.47232e-05
3.48285e-05
3.48581e-05
3.48494e-05
3.48545e-05
3.48611e-05
3.48708e-05
3.48834e-05
3.49021e-05
3.49281e-05
3.49784e-05
3.50725e-05
3.32845e-05
3.10784e-05
2.70414e-05
2.68242e-05
2.95057e-05
3.21081e-05
3.36825e-05
3.44253e-05
3.47169e-05
3.48137e-05
3.48413e-05
3.48379e-05
3.48422e-05
3.48473e-05
3.48547e-05
3.48642e-05
3.48777e-05
3.48972e-05
3.49326e-05
3.50429e-05
3.36522e-05
3.24386e-05
2.87213e-05
2.80865e-05
3.01983e-05
3.24071e-05
3.37858e-05
3.44502e-05
3.47152e-05
3.48044e-05
3.48303e-05
3.483e-05
3.48334e-05
3.48375e-05
3.48433e-05
3.48508e-05
3.48608e-05
3.48753e-05
3.48994e-05
3.49945e-05
3.32437e-05
3.05874e-05
2.708e-05
2.75894e-05
3.02247e-05
3.25101e-05
3.38496e-05
3.44752e-05
3.47196e-05
3.48005e-05
3.48235e-05
3.48238e-05
3.48261e-05
3.48292e-05
3.48337e-05
3.48394e-05
3.48468e-05
3.48553e-05
3.48673e-05
3.48754e-05
3.1647e-05
2.59175e-05
2.3755e-05
2.60865e-05
2.97542e-05
3.24873e-05
3.39201e-05
3.45233e-05
3.47375e-05
3.48026e-05
3.48195e-05
3.48197e-05
3.48204e-05
3.48225e-05
3.4826e-05
3.48307e-05
3.48367e-05
3.48435e-05
3.48521e-05
3.4857e-05
3.45715e-05
3.43613e-05
3.44239e-05
3.45945e-05
3.47082e-05
3.47525e-05
3.47909e-05
3.4814e-05
3.48218e-05
3.4822e-05
3.48205e-05
3.48146e-05
3.48148e-05
3.48163e-05
3.48191e-05
3.48229e-05
3.48277e-05
3.48329e-05
3.48394e-05
3.48461e-05
3.48425e-05
3.48368e-05
3.48369e-05
3.48424e-05
3.48443e-05
3.48411e-05
3.48349e-05
3.48284e-05
3.48227e-05
3.48184e-05
3.48157e-05
3.481e-05
3.48099e-05
3.4811e-05
3.48131e-05
3.48162e-05
3.48202e-05
3.48244e-05
3.48292e-05
3.48328e-05
3.4836e-05
3.48348e-05
3.48346e-05
3.48371e-05
3.48367e-05
3.48339e-05
3.48288e-05
3.48233e-05
3.48181e-05
3.48141e-05
3.48114e-05
3.48055e-05
3.48053e-05
3.4806e-05
3.48077e-05
3.48101e-05
3.48135e-05
3.48171e-05
3.48214e-05
3.4825e-05
3.48278e-05
3.48276e-05
3.4827e-05
3.48278e-05
3.48273e-05
3.48253e-05
3.48214e-05
3.48169e-05
3.48127e-05
3.48093e-05
3.48069e-05
3.48015e-05
3.4801e-05
3.48014e-05
3.48027e-05
3.48047e-05
3.48075e-05
3.48106e-05
3.4814e-05
3.48168e-05
3.48193e-05
3.48197e-05
3.48202e-05
3.48213e-05
3.4821e-05
3.48192e-05
3.48159e-05
3.48121e-05
3.48084e-05
3.48052e-05
3.48029e-05
3.47976e-05
3.4797e-05
3.47972e-05
3.47982e-05
3.47999e-05
3.48022e-05
3.48049e-05
3.4808e-05
3.48106e-05
3.4813e-05
3.48138e-05
3.48141e-05
3.48146e-05
3.48142e-05
3.48127e-05
3.48101e-05
3.4807e-05
3.48038e-05
3.48011e-05
3.4799e-05
3.4794e-05
3.47934e-05
3.47934e-05
3.47941e-05
3.47954e-05
3.47974e-05
3.47996e-05
3.48023e-05
3.48045e-05
3.48067e-05
3.48077e-05
3.48085e-05
3.48092e-05
3.4809e-05
3.48077e-05
3.48055e-05
3.48028e-05
3.48e-05
3.47974e-05
3.47954e-05
3.47907e-05
3.47899e-05
3.47898e-05
3.47903e-05
3.47914e-05
3.47931e-05
3.47951e-05
3.47974e-05
3.47995e-05
3.48016e-05
3.48026e-05
3.48034e-05
3.48039e-05
3.48036e-05
3.48027e-05
3.48008e-05
3.47985e-05
3.47961e-05
3.47939e-05
3.4792e-05
3.47876e-05
3.47868e-05
3.47866e-05
3.47869e-05
3.47878e-05
3.47892e-05
3.47909e-05
3.47929e-05
3.47948e-05
3.47967e-05
3.47978e-05
3.47987e-05
3.47994e-05
3.47993e-05
3.47984e-05
3.47968e-05
3.47948e-05
3.47927e-05
3.47906e-05
3.47889e-05
3.47847e-05
3.47839e-05
3.47836e-05
3.47838e-05
3.47845e-05
3.47857e-05
3.47872e-05
3.4789e-05
3.47908e-05
3.47925e-05
3.47936e-05
3.47945e-05
3.47951e-05
3.4795e-05
3.47943e-05
3.4793e-05
3.47913e-05
3.47894e-05
3.47876e-05
3.4786e-05
3.47821e-05
3.47813e-05
3.47809e-05
3.4781e-05
3.47815e-05
3.47826e-05
3.47838e-05
3.47855e-05
3.4787e-05
3.47886e-05
3.47898e-05
3.47907e-05
3.47913e-05
3.47914e-05
3.47908e-05
3.47897e-05
3.47882e-05
3.47865e-05
3.47848e-05
3.47833e-05
3.47797e-05
3.47789e-05
3.47785e-05
3.47785e-05
3.47789e-05
3.47798e-05
3.47809e-05
3.47824e-05
3.47838e-05
3.47853e-05
3.47864e-05
3.47873e-05
3.47879e-05
3.4788e-05
3.47875e-05
3.47866e-05
3.47853e-05
3.47838e-05
3.47823e-05
3.47809e-05
3.47776e-05
3.47768e-05
3.47763e-05
3.47762e-05
3.47765e-05
3.47773e-05
3.47782e-05
3.47796e-05
3.47808e-05
3.47822e-05
3.47833e-05
3.47842e-05
3.47848e-05
3.4785e-05
3.47847e-05
3.47839e-05
3.47827e-05
3.47814e-05
3.478e-05
3.47787e-05
3.47756e-05
3.47749e-05
3.47744e-05
3.47742e-05
3.47744e-05
3.47751e-05
3.47759e-05
3.47771e-05
3.47783e-05
3.47796e-05
3.47806e-05
3.47815e-05
3.47821e-05
3.47823e-05
3.47821e-05
3.47814e-05
3.47804e-05
3.47792e-05
3.47779e-05
3.47767e-05
3.47739e-05
3.47731e-05
3.47726e-05
3.47724e-05
3.47726e-05
3.47731e-05
3.47738e-05
3.47749e-05
3.4776e-05
3.47772e-05
3.47782e-05
3.47791e-05
3.47797e-05
3.478e-05
3.47798e-05
3.47792e-05
3.47783e-05
3.47772e-05
3.4776e-05
3.47749e-05
3.47724e-05
3.47716e-05
3.47711e-05
3.47709e-05
3.47709e-05
3.47714e-05
3.4772e-05
3.4773e-05
3.47741e-05
3.47752e-05
3.47762e-05
3.4777e-05
3.47776e-05
3.47779e-05
3.47778e-05
3.47773e-05
3.47765e-05
3.47755e-05
3.47744e-05
3.47734e-05
3.47711e-05
3.47703e-05
3.47698e-05
3.47695e-05
3.47695e-05
3.47699e-05
3.47705e-05
3.47714e-05
3.47723e-05
3.47734e-05
3.47744e-05
3.47752e-05
3.47758e-05
3.47761e-05
3.47761e-05
3.47756e-05
3.47749e-05
3.4774e-05
3.4773e-05
3.4772e-05
3.47699e-05
3.47692e-05
3.47686e-05
3.47683e-05
3.47683e-05
3.47686e-05
3.47691e-05
3.477e-05
3.47709e-05
3.47719e-05
3.47728e-05
3.47737e-05
3.47743e-05
3.47746e-05
3.47746e-05
3.47742e-05
3.47736e-05
3.47727e-05
3.47718e-05
3.47708e-05
3.47689e-05
3.47682e-05
3.47676e-05
3.47673e-05
3.47673e-05
3.47675e-05
3.4768e-05
3.47688e-05
3.47696e-05
3.47706e-05
3.47715e-05
3.47723e-05
3.47729e-05
3.47733e-05
3.47733e-05
3.4773e-05
3.47724e-05
3.47716e-05
3.47707e-05
3.47698e-05
3.47682e-05
3.47675e-05
3.47669e-05
3.47665e-05
3.47665e-05
3.47667e-05
3.47671e-05
3.47678e-05
3.47686e-05
3.47696e-05
3.47705e-05
3.47713e-05
3.47719e-05
3.47722e-05
3.47723e-05
3.4772e-05
3.47715e-05
3.47708e-05
3.47699e-05
3.4769e-05
3.47675e-05
3.47668e-05
3.47662e-05
3.47658e-05
3.47657e-05
3.47659e-05
3.47663e-05
3.4767e-05
3.47678e-05
3.47687e-05
3.47696e-05
3.47704e-05
3.4771e-05
3.47713e-05
3.47714e-05
3.47712e-05
3.47707e-05
3.477e-05
3.47691e-05
3.47683e-05
3.47671e-05
3.47664e-05
3.47658e-05
3.47654e-05
3.47653e-05
3.47655e-05
3.47658e-05
3.47665e-05
3.47672e-05
3.47682e-05
3.4769e-05
3.47698e-05
3.47704e-05
3.47708e-05
3.47709e-05
3.47707e-05
3.47702e-05
3.47696e-05
3.47687e-05
3.47679e-05
3.47668e-05
3.47661e-05
3.47656e-05
3.47651e-05
3.4765e-05
3.47652e-05
3.47655e-05
3.47662e-05
3.47669e-05
3.47678e-05
3.47686e-05
3.47694e-05
3.477e-05
3.47704e-05
3.47706e-05
3.47703e-05
3.47699e-05
3.47692e-05
3.47684e-05
3.47677e-05
3.4799e-05
3.48045e-05
3.47971e-05
3.47956e-05
3.4804e-05
3.47974e-05
3.47963e-05
3.48075e-05
3.47999e-05
3.48109e-05
3.48019e-05
3.48135e-05
3.48036e-05
3.48144e-05
3.48169e-05
3.48038e-05
3.48118e-05
3.48018e-05
3.47992e-05
3.48071e-05
2.57049e-05
2.30652e-05
2.21103e-05
2.30053e-05
2.53999e-05
2.86618e-05
3.20915e-05
3.52369e-05
3.79057e-05
4.00358e-05
4.15852e-05
4.251e-05
4.28009e-05
4.2521e-05
4.17641e-05
4.05426e-05
3.87855e-05
3.63352e-05
3.30992e-05
2.93093e-05
2.42051e-05
2.78912e-05
3.22559e-05
3.62503e-05
3.92416e-05
4.11397e-05
4.22441e-05
4.28795e-05
4.32366e-05
4.33402e-05
4.30261e-05
4.20846e-05
4.04469e-05
3.8174e-05
3.53203e-05
3.18564e-05
2.80406e-05
2.45659e-05
2.23399e-05
2.21019e-05
3.35699e-05
3.64564e-05
3.83917e-05
3.9571e-05
4.02394e-05
4.05657e-05
4.07112e-05
4.07832e-05
4.08283e-05
4.08591e-05
4.04552e-05
3.89649e-05
3.61077e-05
3.21623e-05
2.78184e-05
2.4158e-05
2.2304e-05
2.28838e-05
2.56626e-05
2.9576e-05
3.5978e-05
3.72832e-05
3.7995e-05
3.83217e-05
3.84464e-05
3.85166e-05
3.86169e-05
3.8766e-05
3.90477e-05
4.02048e-05
4.12707e-05
4.02462e-05
3.64122e-05
3.09035e-05
2.59693e-05
2.35389e-05
2.41807e-05
2.70599e-05
3.06436e-05
3.37382e-05
3.66921e-05
3.71759e-05
3.7381e-05
3.74652e-05
3.75321e-05
3.76107e-05
3.77342e-05
3.79075e-05
3.84939e-05
4.16702e-05
4.49314e-05
4.45063e-05
3.99003e-05
3.3723e-05
2.90369e-05
2.75932e-05
2.89708e-05
3.15514e-05
3.39708e-05
3.56779e-05
3.66536e-05
3.68077e-05
3.68586e-05
3.68778e-05
3.69186e-05
3.69899e-05
3.71176e-05
3.7299e-05
3.79863e-05
4.21087e-05
4.63709e-05
4.62677e-05
4.09675e-05
3.43249e-05
3.04427e-05
3.0145e-05
3.18531e-05
3.38676e-05
3.53695e-05
3.62389e-05
3.6471e-05
3.64962e-05
3.65119e-05
3.65405e-05
3.65972e-05
3.66741e-05
3.67943e-05
3.69635e-05
3.761e-05
4.03341e-05
4.35792e-05
4.49591e-05
4.23302e-05
3.69603e-05
3.35963e-05
3.32555e-05
3.43016e-05
3.53745e-05
3.60425e-05
3.63529e-05
3.6311e-05
3.63097e-05
3.63173e-05
3.63369e-05
3.63782e-05
3.64411e-05
3.65402e-05
3.66895e-05
3.69572e-05
3.62059e-05
3.5356e-05
3.44188e-05
3.33735e-05
3.26308e-05
3.29577e-05
3.41331e-05
3.52473e-05
3.59069e-05
3.61947e-05
3.62869e-05
3.61778e-05
3.61813e-05
3.61944e-05
3.62193e-05
3.62578e-05
3.63138e-05
3.63927e-05
3.65247e-05
3.67409e-05
3.52199e-05
3.25556e-05
2.88093e-05
2.72506e-05
2.9015e-05
3.18459e-05
3.41009e-05
3.53704e-05
3.5924e-05
3.61166e-05
3.61668e-05
3.61059e-05
3.61119e-05
3.61227e-05
3.61411e-05
3.6169e-05
3.62129e-05
3.6274e-05
3.63874e-05
3.65649e-05
3.48805e-05
3.24168e-05
2.83801e-05
2.67146e-05
2.88168e-05
3.19765e-05
3.42453e-05
3.54121e-05
3.58905e-05
3.60516e-05
3.6095e-05
3.60607e-05
3.60677e-05
3.60785e-05
3.60953e-05
3.61181e-05
3.6153e-05
3.61989e-05
3.62907e-05
3.64263e-05
3.46158e-05
3.23696e-05
2.82335e-05
2.70967e-05
2.95574e-05
3.25639e-05
3.45403e-05
3.55057e-05
3.58892e-05
3.60159e-05
3.60508e-05
3.60354e-05
3.60412e-05
3.60494e-05
3.60619e-05
3.60787e-05
3.6105e-05
3.61409e-05
3.62132e-05
3.63336e-05
3.44086e-05
3.28565e-05
2.92923e-05
2.84554e-05
3.07253e-05
3.32584e-05
3.48511e-05
3.56091e-05
3.59048e-05
3.60011e-05
3.60276e-05
3.60183e-05
3.60237e-05
3.60307e-05
3.6041e-05
3.60542e-05
3.60736e-05
3.61005e-05
3.61524e-05
3.62495e-05
3.44669e-05
3.23865e-05
2.8218e-05
2.80455e-05
3.07915e-05
3.33825e-05
3.49157e-05
3.56247e-05
3.58974e-05
3.5986e-05
3.60108e-05
3.60068e-05
3.60112e-05
3.60166e-05
3.60245e-05
3.60345e-05
3.60487e-05
3.60688e-05
3.61053e-05
3.62202e-05
3.48775e-05
3.388e-05
3.00059e-05
2.93513e-05
3.14912e-05
3.36779e-05
3.50153e-05
3.56476e-05
3.58949e-05
3.59765e-05
3.59998e-05
3.59987e-05
3.60022e-05
3.60066e-05
3.60128e-05
3.60207e-05
3.60312e-05
3.60462e-05
3.60711e-05
3.61703e-05
3.44388e-05
3.18727e-05
2.82659e-05
2.88327e-05
3.1511e-05
3.37754e-05
3.50751e-05
3.56705e-05
3.58984e-05
3.59723e-05
3.59929e-05
3.59923e-05
3.59948e-05
3.59981e-05
3.60029e-05
3.6009e-05
3.60167e-05
3.60256e-05
3.6038e-05
3.60459e-05
3.26585e-05
2.67234e-05
2.46592e-05
2.72222e-05
3.10102e-05
3.37433e-05
3.51398e-05
3.57146e-05
3.59142e-05
3.59735e-05
3.59885e-05
3.5988e-05
3.59888e-05
3.59912e-05
3.5995e-05
3.59999e-05
3.60062e-05
3.60132e-05
3.60221e-05
3.60271e-05
3.57312e-05
3.55238e-05
3.5597e-05
3.57717e-05
3.58827e-05
3.59258e-05
3.59629e-05
3.59842e-05
3.59906e-05
3.59903e-05
3.59886e-05
3.59827e-05
3.59831e-05
3.59848e-05
3.59878e-05
3.59918e-05
3.59968e-05
3.60023e-05
3.60091e-05
3.60159e-05
3.6012e-05
3.60062e-05
3.60064e-05
3.6012e-05
3.60136e-05
3.601e-05
3.60033e-05
3.59966e-05
3.59907e-05
3.59864e-05
3.59837e-05
3.5978e-05
3.5978e-05
3.59793e-05
3.59816e-05
3.59848e-05
3.5989e-05
3.59935e-05
3.59984e-05
3.60021e-05
3.60053e-05
3.60039e-05
3.60037e-05
3.60062e-05
3.60057e-05
3.60025e-05
3.59972e-05
3.59913e-05
3.5986e-05
3.5982e-05
3.59793e-05
3.59734e-05
3.59732e-05
3.59741e-05
3.59759e-05
3.59786e-05
3.59821e-05
3.59859e-05
3.59903e-05
3.5994e-05
3.59968e-05
3.59964e-05
3.59958e-05
3.59966e-05
3.5996e-05
3.59937e-05
3.59895e-05
3.59849e-05
3.59806e-05
3.59771e-05
3.59747e-05
3.59693e-05
3.59689e-05
3.59694e-05
3.59708e-05
3.5973e-05
3.59759e-05
3.59791e-05
3.59826e-05
3.59854e-05
3.5988e-05
3.59883e-05
3.59888e-05
3.59899e-05
3.59894e-05
3.59874e-05
3.59839e-05
3.598e-05
3.59762e-05
3.5973e-05
3.59706e-05
3.59653e-05
3.59647e-05
3.5965e-05
3.59661e-05
3.59679e-05
3.59704e-05
3.59732e-05
3.59764e-05
3.59791e-05
3.59815e-05
3.59822e-05
3.59825e-05
3.5983e-05
3.59824e-05
3.59808e-05
3.5978e-05
3.59748e-05
3.59715e-05
3.59687e-05
3.59666e-05
3.59616e-05
3.5961e-05
3.5961e-05
3.59618e-05
3.59633e-05
3.59654e-05
3.59677e-05
3.59705e-05
3.59728e-05
3.5975e-05
3.59759e-05
3.59767e-05
3.59774e-05
3.59771e-05
3.59757e-05
3.59733e-05
3.59704e-05
3.59676e-05
3.5965e-05
3.5963e-05
3.59581e-05
3.59574e-05
3.59574e-05
3.5958e-05
3.59591e-05
3.59609e-05
3.5963e-05
3.59654e-05
3.59676e-05
3.59697e-05
3.59707e-05
3.59714e-05
3.59719e-05
3.59716e-05
3.59705e-05
3.59685e-05
3.59661e-05
3.59636e-05
3.59613e-05
3.59594e-05
3.59549e-05
3.59542e-05
3.5954e-05
3.59544e-05
3.59553e-05
3.59569e-05
3.59586e-05
3.59608e-05
3.59627e-05
3.59646e-05
3.59657e-05
3.59666e-05
3.59672e-05
3.5967e-05
3.59661e-05
3.59644e-05
3.59623e-05
3.59601e-05
3.5958e-05
3.59562e-05
3.5952e-05
3.59512e-05
3.59509e-05
3.59512e-05
3.5952e-05
3.59532e-05
3.59548e-05
3.59567e-05
3.59585e-05
3.59602e-05
3.59613e-05
3.59622e-05
3.59628e-05
3.59627e-05
3.59619e-05
3.59605e-05
3.59587e-05
3.59567e-05
3.59548e-05
3.59532e-05
3.59493e-05
3.59485e-05
3.59482e-05
3.59483e-05
3.59489e-05
3.595e-05
3.59513e-05
3.5953e-05
3.59546e-05
3.59562e-05
3.59574e-05
3.59583e-05
3.59589e-05
3.59589e-05
3.59583e-05
3.59571e-05
3.59555e-05
3.59537e-05
3.5952e-05
3.59505e-05
3.59468e-05
3.59461e-05
3.59457e-05
3.59457e-05
3.59461e-05
3.59471e-05
3.59482e-05
3.59498e-05
3.59512e-05
3.59528e-05
3.59539e-05
3.59548e-05
3.59553e-05
3.59554e-05
3.59549e-05
3.59539e-05
3.59525e-05
3.5951e-05
3.59494e-05
3.5948e-05
3.59446e-05
3.59438e-05
3.59434e-05
3.59433e-05
3.59437e-05
3.59445e-05
3.59455e-05
3.59469e-05
3.59482e-05
3.59496e-05
3.59507e-05
3.59516e-05
3.59522e-05
3.59523e-05
3.5952e-05
3.59511e-05
3.59499e-05
3.59485e-05
3.5947e-05
3.59457e-05
3.59426e-05
3.59419e-05
3.59414e-05
3.59413e-05
3.59415e-05
3.59422e-05
3.59431e-05
3.59443e-05
3.59455e-05
3.59469e-05
3.59479e-05
3.59488e-05
3.59494e-05
3.59496e-05
3.59493e-05
3.59486e-05
3.59475e-05
3.59462e-05
3.59449e-05
3.59437e-05
3.59409e-05
3.59401e-05
3.59396e-05
3.59394e-05
3.59396e-05
3.59401e-05
3.59409e-05
3.59421e-05
3.59432e-05
3.59445e-05
3.59455e-05
3.59463e-05
3.59469e-05
3.59471e-05
3.59469e-05
3.59463e-05
3.59454e-05
3.59442e-05
3.5943e-05
3.59419e-05
3.59393e-05
3.59385e-05
3.5938e-05
3.59378e-05
3.59379e-05
3.59384e-05
3.59391e-05
3.59401e-05
3.59412e-05
3.59424e-05
3.59433e-05
3.59442e-05
3.59448e-05
3.5945e-05
3.59449e-05
3.59443e-05
3.59435e-05
3.59425e-05
3.59413e-05
3.59403e-05
3.59379e-05
3.59372e-05
3.59366e-05
3.59364e-05
3.59364e-05
3.59368e-05
3.59374e-05
3.59384e-05
3.59394e-05
3.59405e-05
3.59414e-05
3.59423e-05
3.59429e-05
3.59432e-05
3.59431e-05
3.59426e-05
3.59419e-05
3.59409e-05
3.59399e-05
3.59388e-05
3.59368e-05
3.5936e-05
3.59355e-05
3.59352e-05
3.59352e-05
3.59355e-05
3.59361e-05
3.5937e-05
3.59379e-05
3.5939e-05
3.59399e-05
3.59407e-05
3.59413e-05
3.59416e-05
3.59416e-05
3.59412e-05
3.59405e-05
3.59396e-05
3.59386e-05
3.59377e-05
3.59357e-05
3.5935e-05
3.59344e-05
3.59341e-05
3.59341e-05
3.59344e-05
3.59349e-05
3.59357e-05
3.59366e-05
3.59376e-05
3.59385e-05
3.59393e-05
3.59399e-05
3.59402e-05
3.59403e-05
3.59399e-05
3.59393e-05
3.59385e-05
3.59375e-05
3.59366e-05
3.59349e-05
3.59342e-05
3.59337e-05
3.59333e-05
3.59333e-05
3.59335e-05
3.59339e-05
3.59347e-05
3.59355e-05
3.59366e-05
3.59374e-05
3.59383e-05
3.59388e-05
3.59392e-05
3.59393e-05
3.59389e-05
3.59384e-05
3.59376e-05
3.59367e-05
3.59358e-05
3.59342e-05
3.59335e-05
3.59329e-05
3.59326e-05
3.59325e-05
3.59327e-05
3.59331e-05
3.59339e-05
3.59347e-05
3.59357e-05
3.59365e-05
3.59373e-05
3.59379e-05
3.59383e-05
3.59383e-05
3.5938e-05
3.59375e-05
3.59368e-05
3.59359e-05
3.59351e-05
3.59338e-05
3.59331e-05
3.59325e-05
3.59321e-05
3.59321e-05
3.59322e-05
3.59326e-05
3.59333e-05
3.59341e-05
3.59351e-05
3.59359e-05
3.59367e-05
3.59373e-05
3.59377e-05
3.59378e-05
3.59375e-05
3.59371e-05
3.59363e-05
3.59355e-05
3.59347e-05
3.59336e-05
3.59329e-05
3.59323e-05
3.59318e-05
3.59318e-05
3.5932e-05
3.59323e-05
3.5933e-05
3.59337e-05
3.59347e-05
3.59355e-05
3.59363e-05
3.59369e-05
3.59373e-05
3.59375e-05
3.59372e-05
3.59367e-05
3.5936e-05
3.59351e-05
3.59344e-05
3.59655e-05
3.59706e-05
3.59636e-05
3.59623e-05
3.59702e-05
3.5964e-05
3.5963e-05
3.59738e-05
3.59665e-05
3.59771e-05
3.59686e-05
3.59797e-05
3.59702e-05
3.59806e-05
3.59828e-05
3.59703e-05
3.59779e-05
3.59683e-05
3.59659e-05
3.59733e-05
2.55429e-05
2.3143e-05
2.26115e-05
2.39786e-05
2.67719e-05
3.02882e-05
3.38288e-05
3.69976e-05
3.96451e-05
4.17296e-05
4.32128e-05
4.40484e-05
4.42272e-05
4.38171e-05
4.29143e-05
4.15128e-05
3.95175e-05
3.67613e-05
3.3198e-05
2.91742e-05
2.53378e-05
2.94051e-05
3.39364e-05
3.79063e-05
4.07822e-05
4.25695e-05
4.36095e-05
4.42158e-05
4.45636e-05
4.46669e-05
4.43413e-05
4.33491e-05
4.1604e-05
3.9158e-05
3.60578e-05
3.22976e-05
2.82335e-05
2.46855e-05
2.26332e-05
2.27843e-05
3.49595e-05
3.7835e-05
3.97311e-05
4.08737e-05
4.15133e-05
4.18207e-05
4.19609e-05
4.20381e-05
4.2104e-05
4.22116e-05
4.18924e-05
4.03701e-05
3.73034e-05
3.3026e-05
2.83612e-05
2.45562e-05
2.28078e-05
2.36867e-05
2.67974e-05
3.09253e-05
3.73186e-05
3.85903e-05
3.92704e-05
3.95737e-05
3.96886e-05
3.9761e-05
3.98688e-05
4.00285e-05
4.03435e-05
4.17902e-05
4.32165e-05
4.22186e-05
3.80062e-05
3.20013e-05
2.67969e-05
2.4395e-05
2.52465e-05
2.83316e-05
3.20144e-05
3.51177e-05
3.7979e-05
3.84335e-05
3.86221e-05
3.87003e-05
3.87689e-05
3.88509e-05
3.89815e-05
3.9164e-05
3.98261e-05
4.372e-05
4.77395e-05
4.73911e-05
4.22793e-05
3.54944e-05
3.04177e-05
2.88852e-05
3.03088e-05
3.29252e-05
3.53358e-05
3.70076e-05
3.79025e-05
3.80421e-05
3.8088e-05
3.81075e-05
3.81527e-05
3.82285e-05
3.83628e-05
3.85519e-05
3.93211e-05
4.43302e-05
4.94001e-05
4.92178e-05
4.31848e-05
3.58822e-05
3.17427e-05
3.14433e-05
3.31937e-05
3.5212e-05
3.66847e-05
3.75168e-05
3.76977e-05
3.77228e-05
3.77407e-05
3.77719e-05
3.78317e-05
3.79116e-05
3.80365e-05
3.8212e-05
3.89342e-05
4.22822e-05
4.61413e-05
4.76117e-05
4.43822e-05
3.83081e-05
3.47057e-05
3.43949e-05
3.55083e-05
3.66119e-05
3.72817e-05
3.75854e-05
3.75335e-05
3.75351e-05
3.75451e-05
3.75671e-05
3.76111e-05
3.76768e-05
3.77795e-05
3.7934e-05
3.8214e-05
3.74591e-05
3.66694e-05
3.57056e-05
3.4566e-05
3.37255e-05
3.4031e-05
3.52538e-05
3.64185e-05
3.7108e-05
3.74092e-05
3.75071e-05
3.74033e-05
3.74085e-05
3.74234e-05
3.745e-05
3.74901e-05
3.75482e-05
3.76295e-05
3.77661e-05
3.79904e-05
3.64413e-05
3.37903e-05
2.99291e-05
2.8376e-05
3.01849e-05
3.30421e-05
3.53091e-05
3.65859e-05
3.71439e-05
3.73389e-05
3.73909e-05
3.73326e-05
3.73394e-05
3.73512e-05
3.7371e-05
3.74003e-05
3.7446e-05
3.7509e-05
3.76263e-05
3.78098e-05
3.61103e-05
3.37224e-05
2.95641e-05
2.78972e-05
3.00899e-05
3.32773e-05
3.55252e-05
3.6666e-05
3.71277e-05
3.72811e-05
3.7322e-05
3.7288e-05
3.72956e-05
3.73071e-05
3.73249e-05
3.73486e-05
3.73849e-05
3.74321e-05
3.75272e-05
3.76666e-05
3.58536e-05
3.37197e-05
2.94467e-05
2.83381e-05
3.08926e-05
3.39065e-05
3.58422e-05
3.67692e-05
3.71303e-05
3.72471e-05
3.72786e-05
3.72627e-05
3.72688e-05
3.72776e-05
3.7291e-05
3.73086e-05
3.7336e-05
3.7373e-05
3.74478e-05
3.75717e-05
3.56461e-05
3.43077e-05
3.06222e-05
2.97745e-05
3.20921e-05
3.46051e-05
3.61492e-05
3.68691e-05
3.71441e-05
3.72316e-05
3.72553e-05
3.72457e-05
3.72512e-05
3.72588e-05
3.72697e-05
3.72835e-05
3.73037e-05
3.73315e-05
3.73851e-05
3.74853e-05
3.57249e-05
3.38001e-05
2.9484e-05
2.93493e-05
3.21505e-05
3.47208e-05
3.6208e-05
3.68818e-05
3.71357e-05
3.72164e-05
3.72386e-05
3.7234e-05
3.72385e-05
3.72444e-05
3.72527e-05
3.72633e-05
3.72781e-05
3.7299e-05
3.73367e-05
3.74561e-05
3.61836e-05
3.54406e-05
3.13859e-05
3.06994e-05
3.28569e-05
3.50124e-05
3.63039e-05
3.69028e-05
3.71325e-05
3.72067e-05
3.72275e-05
3.72258e-05
3.72294e-05
3.72341e-05
3.72407e-05
3.7249e-05
3.726e-05
3.72756e-05
3.73013e-05
3.74049e-05
3.57119e-05
3.32614e-05
2.95404e-05
3.01574e-05
3.28689e-05
3.51036e-05
3.63595e-05
3.69234e-05
3.71351e-05
3.72022e-05
3.72205e-05
3.72192e-05
3.72218e-05
3.72253e-05
3.72305e-05
3.72369e-05
3.7245e-05
3.72543e-05
3.72672e-05
3.72748e-05
3.37249e-05
2.75806e-05
2.56294e-05
2.84327e-05
3.23356e-05
3.50611e-05
3.64178e-05
3.69635e-05
3.71488e-05
3.72024e-05
3.72157e-05
3.72146e-05
3.72156e-05
3.72182e-05
3.72223e-05
3.72275e-05
3.72341e-05
3.72414e-05
3.72506e-05
3.72556e-05
3.69495e-05
3.67456e-05
3.68295e-05
3.70079e-05
3.71157e-05
3.71576e-05
3.71931e-05
3.72125e-05
3.72177e-05
3.72169e-05
3.72151e-05
3.72091e-05
3.72097e-05
3.72117e-05
3.72149e-05
3.72191e-05
3.72244e-05
3.72301e-05
3.72371e-05
3.72441e-05
3.72399e-05
3.72341e-05
3.72344e-05
3.72401e-05
3.72413e-05
3.72372e-05
3.72301e-05
3.72231e-05
3.72171e-05
3.72127e-05
3.72101e-05
3.72043e-05
3.72045e-05
3.72059e-05
3.72084e-05
3.72119e-05
3.72163e-05
3.72209e-05
3.7226e-05
3.72297e-05
3.7233e-05
3.72313e-05
3.72311e-05
3.72337e-05
3.72329e-05
3.72294e-05
3.72238e-05
3.72177e-05
3.72123e-05
3.72082e-05
3.72055e-05
3.71996e-05
3.71996e-05
3.72005e-05
3.72026e-05
3.72054e-05
3.72091e-05
3.72131e-05
3.72176e-05
3.72213e-05
3.72242e-05
3.72236e-05
3.7223e-05
3.72237e-05
3.72229e-05
3.72204e-05
3.7216e-05
3.72112e-05
3.72067e-05
3.72032e-05
3.72008e-05
3.71953e-05
3.7195e-05
3.71957e-05
3.71972e-05
3.71995e-05
3.72026e-05
3.72059e-05
3.72096e-05
3.72125e-05
3.72151e-05
3.72153e-05
3.72157e-05
3.72168e-05
3.72162e-05
3.7214e-05
3.72103e-05
3.72062e-05
3.72022e-05
3.7199e-05
3.71967e-05
3.71912e-05
3.71908e-05
3.71911e-05
3.71924e-05
3.71943e-05
3.71969e-05
3.71998e-05
3.72031e-05
3.72058e-05
3.72083e-05
3.72089e-05
3.72092e-05
3.72096e-05
3.7209e-05
3.72072e-05
3.72042e-05
3.72008e-05
3.71975e-05
3.71947e-05
3.71925e-05
3.71874e-05
3.71869e-05
3.7187e-05
3.71879e-05
3.71895e-05
3.71917e-05
3.71941e-05
3.7197e-05
3.71993e-05
3.72015e-05
3.72024e-05
3.72032e-05
3.72039e-05
3.72035e-05
3.72019e-05
3.71994e-05
3.71964e-05
3.71934e-05
3.71908e-05
3.71888e-05
3.71839e-05
3.71832e-05
3.71832e-05
3.71839e-05
3.71851e-05
3.7187e-05
3.71892e-05
3.71917e-05
3.71939e-05
3.71961e-05
3.7197e-05
3.71977e-05
3.71982e-05
3.71978e-05
3.71966e-05
3.71945e-05
3.7192e-05
3.71894e-05
3.7187e-05
3.71852e-05
3.71806e-05
3.71799e-05
3.71797e-05
3.71802e-05
3.71812e-05
3.71828e-05
3.71847e-05
3.71869e-05
3.71888e-05
3.71908e-05
3.71919e-05
3.71928e-05
3.71933e-05
3.71931e-05
3.71921e-05
3.71903e-05
3.71881e-05
3.71858e-05
3.71836e-05
3.71819e-05
3.71775e-05
3.71768e-05
3.71766e-05
3.71769e-05
3.71777e-05
3.71791e-05
3.71807e-05
3.71827e-05
3.71845e-05
3.71863e-05
3.71874e-05
3.71883e-05
3.71888e-05
3.71886e-05
3.71878e-05
3.71862e-05
3.71844e-05
3.71823e-05
3.71804e-05
3.71788e-05
3.71748e-05
3.7174e-05
3.71737e-05
3.71739e-05
3.71745e-05
3.71757e-05
3.71771e-05
3.71789e-05
3.71805e-05
3.71822e-05
3.71833e-05
3.71842e-05
3.71848e-05
3.71847e-05
3.7184e-05
3.71827e-05
3.71811e-05
3.71793e-05
3.71775e-05
3.7176e-05
3.71722e-05
3.71715e-05
3.71711e-05
3.71712e-05
3.71717e-05
3.71727e-05
3.71739e-05
3.71755e-05
3.7177e-05
3.71786e-05
3.71796e-05
3.71806e-05
3.71811e-05
3.71811e-05
3.71806e-05
3.71795e-05
3.7178e-05
3.71764e-05
3.71748e-05
3.71734e-05
3.71699e-05
3.71692e-05
3.71687e-05
3.71687e-05
3.71691e-05
3.717e-05
3.7171e-05
3.71725e-05
3.71738e-05
3.71753e-05
3.71764e-05
3.71773e-05
3.71779e-05
3.71779e-05
3.71775e-05
3.71766e-05
3.71753e-05
3.71739e-05
3.71724e-05
3.71711e-05
3.71679e-05
3.71671e-05
3.71667e-05
3.71666e-05
3.71669e-05
3.71676e-05
3.71685e-05
3.71698e-05
3.71711e-05
3.71725e-05
3.71735e-05
3.71744e-05
3.7175e-05
3.71751e-05
3.71748e-05
3.7174e-05
3.71729e-05
3.71716e-05
3.71702e-05
3.7169e-05
3.71661e-05
3.71653e-05
3.71648e-05
3.71647e-05
3.71649e-05
3.71655e-05
3.71663e-05
3.71675e-05
3.71686e-05
3.71699e-05
3.71709e-05
3.71718e-05
3.71724e-05
3.71726e-05
3.71724e-05
3.71717e-05
3.71707e-05
3.71695e-05
3.71682e-05
3.71671e-05
3.71644e-05
3.71637e-05
3.71632e-05
3.7163e-05
3.71631e-05
3.71636e-05
3.71644e-05
3.71655e-05
3.71665e-05
3.71678e-05
3.71687e-05
3.71696e-05
3.71702e-05
3.71704e-05
3.71702e-05
3.71696e-05
3.71688e-05
3.71677e-05
3.71665e-05
3.71654e-05
3.7163e-05
3.71623e-05
3.71617e-05
3.71615e-05
3.71616e-05
3.7162e-05
3.71627e-05
3.71637e-05
3.71647e-05
3.71659e-05
3.71668e-05
3.71677e-05
3.71682e-05
3.71685e-05
3.71684e-05
3.71679e-05
3.71671e-05
3.71661e-05
3.7165e-05
3.7164e-05
3.71618e-05
3.71611e-05
3.71605e-05
3.71603e-05
3.71603e-05
3.71607e-05
3.71613e-05
3.71622e-05
3.71631e-05
3.71643e-05
3.71652e-05
3.7166e-05
3.71666e-05
3.71669e-05
3.71668e-05
3.71664e-05
3.71657e-05
3.71648e-05
3.71637e-05
3.71628e-05
3.71608e-05
3.716e-05
3.71595e-05
3.71592e-05
3.71592e-05
3.71595e-05
3.716e-05
3.71609e-05
3.71618e-05
3.71629e-05
3.71637e-05
3.71646e-05
3.71651e-05
3.71655e-05
3.71655e-05
3.71651e-05
3.71644e-05
3.71636e-05
3.71626e-05
3.71617e-05
3.716e-05
3.71593e-05
3.71587e-05
3.71583e-05
3.71583e-05
3.71586e-05
3.7159e-05
3.71599e-05
3.71607e-05
3.71618e-05
3.71626e-05
3.71635e-05
3.7164e-05
3.71644e-05
3.71644e-05
3.71641e-05
3.71635e-05
3.71627e-05
3.71617e-05
3.71609e-05
3.71592e-05
3.71585e-05
3.71579e-05
3.71576e-05
3.71575e-05
3.71578e-05
3.71582e-05
3.7159e-05
3.71598e-05
3.71608e-05
3.71617e-05
3.71625e-05
3.71631e-05
3.71634e-05
3.71635e-05
3.71632e-05
3.71626e-05
3.71619e-05
3.71609e-05
3.71601e-05
3.71588e-05
3.71581e-05
3.71575e-05
3.71571e-05
3.71571e-05
3.71573e-05
3.71576e-05
3.71584e-05
3.71592e-05
3.71603e-05
3.7161e-05
3.71619e-05
3.71625e-05
3.71629e-05
3.7163e-05
3.71626e-05
3.71622e-05
3.71614e-05
3.71605e-05
3.71597e-05
3.71585e-05
3.71578e-05
3.71572e-05
3.71568e-05
3.71568e-05
3.7157e-05
3.71573e-05
3.71581e-05
3.71588e-05
3.71599e-05
3.71606e-05
3.71615e-05
3.7162e-05
3.71625e-05
3.71626e-05
3.71622e-05
3.71618e-05
3.7161e-05
3.71602e-05
3.71594e-05
3.71903e-05
3.71949e-05
3.71884e-05
3.71873e-05
3.71946e-05
3.71888e-05
3.71881e-05
3.71983e-05
3.71914e-05
3.72016e-05
3.71934e-05
3.72042e-05
3.71951e-05
3.7205e-05
3.7207e-05
3.7195e-05
3.72022e-05
3.71931e-05
3.71909e-05
3.71976e-05
2.54183e-05
2.33277e-05
2.32702e-05
2.51268e-05
2.83071e-05
3.20437e-05
3.56694e-05
3.88444e-05
4.14594e-05
4.34905e-05
4.49012e-05
4.56415e-05
4.57012e-05
4.51525e-05
4.40901e-05
4.24889e-05
4.02286e-05
3.71403e-05
3.32436e-05
2.90159e-05
2.66448e-05
3.1065e-05
3.57178e-05
3.96303e-05
4.23784e-05
4.40616e-05
4.50413e-05
4.56203e-05
4.59604e-05
4.60683e-05
4.57385e-05
4.47003e-05
4.2844e-05
4.02099e-05
3.68403e-05
3.27623e-05
2.84534e-05
2.48677e-05
2.30433e-05
2.36297e-05
3.64445e-05
3.92928e-05
4.11418e-05
4.22436e-05
4.28516e-05
4.31401e-05
4.32757e-05
4.33589e-05
4.34504e-05
4.36573e-05