/*--------------------------------*- C++ -*----------------------------------*\
| =========                 |                                                 |
| \\      /  F ield         | OpenFOAM: The Open Source CFD Toolbox           |
|  \\    /   O peration     | Version:  2.4.0                                 |
|   \\  /    A nd           | Web:      www.OpenFOAM.org                      |
|    \\/     M anipulation  |                                                 |
\*---------------------------------------------------------------------------*/
FoamFile
{
    version     2.0;
    format      ascii;
    class       volScalarField;
    location    "150";
    object      nut;
}
// * * * * * * * * * * * * * * * * * * * * * * * * * * * * * * * * * * * * * //

dimensions      [0 2 -1 0 0 0 0];

internalField   nonuniform List<scalar> 
283312
(
2.29718e-06
1.93472e-06
1.75872e-06
1.79505e-06
2.02826e-06
2.41281e-06
2.88013e-06
3.3597e-06
3.8008e-06
4.17388e-06
4.46506e-06
4.66724e-06
4.7734e-06
4.77771e-06
4.68035e-06
4.48366e-06
4.18868e-06
3.79872e-06
3.32813e-06
2.81585e-06
1.94617e-06
2.22776e-06
2.71361e-06
3.29204e-06
3.84973e-06
4.30857e-06
4.64401e-06
4.86556e-06
4.99437e-06
5.0689e-06
5.139e-06
5.21013e-06
5.22225e-06
5.09996e-06
4.79774e-06
4.29721e-06
3.63615e-06
2.93716e-06
2.36135e-06
2.03573e-06
2.90256e-06
3.51322e-06
4.04855e-06
4.4507e-06
4.71601e-06
4.86796e-06
4.94274e-06
4.97569e-06
4.97896e-06
5.08676e-06
5.44954e-06
5.9198e-06
6.09282e-06
5.67383e-06
4.72068e-06
3.56183e-06
2.60275e-06
2.1e-06
2.07429e-06
2.41174e-06
3.93601e-06
4.34102e-06
4.60447e-06
4.74973e-06
4.81767e-06
4.84538e-06
4.85886e-06
4.86872e-06
4.85509e-06
5.35077e-06
6.75701e-06
8.41617e-06
9.00905e-06
7.88084e-06
5.83453e-06
3.9584e-06
2.91284e-06
2.68361e-06
2.96224e-06
3.45672e-06
4.49546e-06
4.65802e-06
4.73956e-06
4.774e-06
4.78771e-06
4.79458e-06
4.80189e-06
4.81227e-06
4.86757e-06
6.3393e-06
9.72909e-06
1.34957e-05
1.54498e-05
1.4284e-05
1.0189e-05
6.26841e-06
4.32405e-06
3.83053e-06
3.96409e-06
4.25657e-06
4.66336e-06
4.72011e-06
4.74189e-06
4.74863e-06
4.75169e-06
4.7553e-06
4.76221e-06
4.77413e-06
4.91536e-06
6.78884e-06
1.00931e-05
1.2833e-05
1.31037e-05
1.05127e-05
7.11202e-06
4.95603e-06
4.19903e-06
4.17239e-06
4.36865e-06
4.55396e-06
4.68235e-06
4.71158e-06
4.72186e-06
4.7258e-06
4.72918e-06
4.73326e-06
4.73997e-06
4.75124e-06
4.88779e-06
5.79852e-06
6.93117e-06
8.06577e-06
8.27968e-06
6.6299e-06
4.89597e-06
4.10194e-06
4.04344e-06
4.26043e-06
4.47987e-06
4.61824e-06
4.68815e-06
4.70567e-06
4.71123e-06
4.71325e-06
4.71534e-06
4.71847e-06
4.72389e-06
4.73264e-06
4.74371e-06
3.96914e-06
2.81369e-06
2.07268e-06
2.06557e-06
2.56136e-06
3.01004e-06
3.46467e-06
3.93221e-06
4.3039e-06
4.53156e-06
4.64377e-06
4.69376e-06
4.70161e-06
4.70402e-06
4.70538e-06
4.70718e-06
4.70995e-06
4.71426e-06
4.72191e-06
4.72944e-06
3.87398e-06
2.7699e-06
1.99594e-06
1.78003e-06
2.14704e-06
2.82762e-06
3.53944e-06
4.09417e-06
4.43304e-06
4.60076e-06
4.66999e-06
4.69598e-06
4.69907e-06
4.69998e-06
4.70068e-06
4.70182e-06
4.70388e-06
4.7071e-06
4.71352e-06
4.71837e-06
3.73643e-06
2.61483e-06
1.89991e-06
1.76828e-06
2.25655e-06
3.06438e-06
3.80596e-06
4.29304e-06
4.54267e-06
4.64756e-06
4.68478e-06
4.69501e-06
4.69655e-06
4.69711e-06
4.69772e-06
4.69863e-06
4.70022e-06
4.70257e-06
4.70768e-06
4.70986e-06
3.61968e-06
2.49136e-06
1.83202e-06
1.8318e-06
2.46748e-06
3.3325e-06
4.02242e-06
4.41933e-06
4.59942e-06
4.66721e-06
4.68898e-06
4.69404e-06
4.69511e-06
4.6955e-06
4.69591e-06
4.69652e-06
4.69763e-06
4.69937e-06
4.70331e-06
4.70459e-06
3.53228e-06
2.42273e-06
1.85186e-06
1.95712e-06
2.66401e-06
3.51761e-06
4.14406e-06
4.47979e-06
4.62304e-06
4.67415e-06
4.68983e-06
4.69314e-06
4.69409e-06
4.69445e-06
4.69479e-06
4.69524e-06
4.69601e-06
4.69724e-06
4.69996e-06
4.7002e-06
3.47767e-06
2.33411e-06
1.75879e-06
1.95328e-06
2.73427e-06
3.59434e-06
4.19322e-06
4.50264e-06
4.63106e-06
4.67592e-06
4.68949e-06
4.69263e-06
4.69352e-06
4.69383e-06
4.69408e-06
4.69439e-06
4.69488e-06
4.69573e-06
4.69755e-06
4.69917e-06
3.46125e-06
2.37846e-06
1.85814e-06
2.05676e-06
2.81002e-06
3.63764e-06
4.21415e-06
4.5113e-06
4.63392e-06
4.67642e-06
4.6892e-06
4.69241e-06
4.69317e-06
4.69344e-06
4.69364e-06
4.69387e-06
4.69419e-06
4.69477e-06
4.69592e-06
4.6973e-06
3.42065e-06
2.26075e-06
1.79013e-06
2.10168e-06
2.9016e-06
3.71368e-06
4.25711e-06
4.53011e-06
4.64059e-06
4.67826e-06
4.68944e-06
4.69257e-06
4.69303e-06
4.6932e-06
4.69334e-06
4.6935e-06
4.69369e-06
4.69393e-06
4.69435e-06
4.69409e-06
3.63915e-06
2.37647e-06
1.95839e-06
2.38298e-06
3.2036e-06
3.9375e-06
4.37914e-06
4.58246e-06
4.65913e-06
4.68381e-06
4.69078e-06
4.69289e-06
4.69297e-06
4.69305e-06
4.69315e-06
4.69327e-06
4.69342e-06
4.69359e-06
4.69384e-06
4.69373e-06
4.56916e-06
4.49758e-06
4.5296e-06
4.59253e-06
4.63577e-06
4.65573e-06
4.67314e-06
4.68474e-06
4.69019e-06
4.69215e-06
4.69273e-06
4.69283e-06
4.69286e-06
4.69292e-06
4.693e-06
4.69309e-06
4.69319e-06
4.6933e-06
4.69344e-06
4.69364e-06
4.69053e-06
4.68901e-06
4.68999e-06
4.69154e-06
4.69237e-06
4.69249e-06
4.69262e-06
4.69276e-06
4.69282e-06
4.69282e-06
4.69282e-06
4.69275e-06
4.69278e-06
4.69282e-06
4.69289e-06
4.69296e-06
4.69304e-06
4.69312e-06
4.6932e-06
4.69325e-06
4.69323e-06
4.69314e-06
4.69313e-06
4.69317e-06
4.69314e-06
4.69307e-06
4.69299e-06
4.6929e-06
4.69283e-06
4.69278e-06
4.69275e-06
4.69268e-06
4.69271e-06
4.69274e-06
4.69279e-06
4.69285e-06
4.69292e-06
4.69298e-06
4.69305e-06
4.6931e-06
4.6931e-06
4.69304e-06
4.69299e-06
4.69298e-06
4.69298e-06
4.69295e-06
4.69289e-06
4.69281e-06
4.69275e-06
4.69271e-06
4.69269e-06
4.69263e-06
4.69264e-06
4.69267e-06
4.69271e-06
4.69276e-06
4.69281e-06
4.69287e-06
4.69291e-06
4.69294e-06
4.69295e-06
4.69292e-06
4.6929e-06
4.6929e-06
4.69288e-06
4.69284e-06
4.69279e-06
4.69274e-06
4.69269e-06
4.69265e-06
4.69263e-06
4.69258e-06
4.69259e-06
4.69261e-06
4.69264e-06
4.69268e-06
4.69273e-06
4.69277e-06
4.69281e-06
4.69284e-06
4.69285e-06
4.69283e-06
4.69281e-06
4.6928e-06
4.69279e-06
4.69276e-06
4.69272e-06
4.69268e-06
4.69264e-06
4.6926e-06
4.69258e-06
4.69254e-06
4.69254e-06
4.69256e-06
4.69258e-06
4.69261e-06
4.69265e-06
4.69269e-06
4.69272e-06
4.69275e-06
4.69276e-06
4.69275e-06
4.69274e-06
4.69274e-06
4.69272e-06
4.6927e-06
4.69266e-06
4.69263e-06
4.69259e-06
4.69256e-06
4.69254e-06
4.69249e-06
4.6925e-06
4.69251e-06
4.69253e-06
4.69255e-06
4.69259e-06
4.69262e-06
4.69265e-06
4.69267e-06
4.69269e-06
4.69268e-06
4.69267e-06
4.69267e-06
4.69266e-06
4.69264e-06
4.69261e-06
4.69258e-06
4.69255e-06
4.69252e-06
4.6925e-06
4.69245e-06
4.69245e-06
4.69246e-06
4.69248e-06
4.6925e-06
4.69253e-06
4.69255e-06
4.69258e-06
4.6926e-06
4.69261e-06
4.69262e-06
4.69261e-06
4.69261e-06
4.6926e-06
4.69258e-06
4.69256e-06
4.69253e-06
4.6925e-06
4.69248e-06
4.69246e-06
4.69242e-06
4.69242e-06
4.69242e-06
4.69243e-06
4.69245e-06
4.69247e-06
4.6925e-06
4.69252e-06
4.69254e-06
4.69255e-06
4.69256e-06
4.69256e-06
4.69256e-06
4.69255e-06
4.69254e-06
4.69251e-06
4.69249e-06
4.69247e-06
4.69244e-06
4.69243e-06
4.69238e-06
4.69238e-06
4.69239e-06
4.69239e-06
4.69241e-06
4.69243e-06
4.69245e-06
4.69247e-06
4.69249e-06
4.6925e-06
4.69251e-06
4.69251e-06
4.69251e-06
4.6925e-06
4.69249e-06
4.69247e-06
4.69245e-06
4.69243e-06
4.69241e-06
4.69239e-06
4.69235e-06
4.69235e-06
4.69235e-06
4.69236e-06
4.69237e-06
4.69239e-06
4.6924e-06
4.69242e-06
4.69244e-06
4.69245e-06
4.69246e-06
4.69246e-06
4.69246e-06
4.69246e-06
4.69245e-06
4.69243e-06
4.69242e-06
4.6924e-06
4.69238e-06
4.69236e-06
4.69233e-06
4.69232e-06
4.69232e-06
4.69233e-06
4.69234e-06
4.69235e-06
4.69236e-06
4.69238e-06
4.69239e-06
4.69241e-06
4.69242e-06
4.69242e-06
4.69242e-06
4.69242e-06
4.69241e-06
4.6924e-06
4.69238e-06
4.69237e-06
4.69235e-06
4.69234e-06
4.6923e-06
4.6923e-06
4.69229e-06
4.6923e-06
4.6923e-06
4.69232e-06
4.69233e-06
4.69234e-06
4.69236e-06
4.69237e-06
4.69238e-06
4.69238e-06
4.69239e-06
4.69239e-06
4.69238e-06
4.69237e-06
4.69235e-06
4.69234e-06
4.69232e-06
4.69231e-06
4.69228e-06
4.69227e-06
4.69227e-06
4.69227e-06
4.69228e-06
4.69229e-06
4.6923e-06
4.69231e-06
4.69232e-06
4.69234e-06
4.69235e-06
4.69235e-06
4.69236e-06
4.69236e-06
4.69235e-06
4.69234e-06
4.69233e-06
4.69231e-06
4.6923e-06
4.69229e-06
4.69226e-06
4.69225e-06
4.69225e-06
4.69225e-06
4.69225e-06
4.69226e-06
4.69227e-06
4.69228e-06
4.6923e-06
4.69231e-06
4.69232e-06
4.69232e-06
4.69233e-06
4.69233e-06
4.69232e-06
4.69232e-06
4.69231e-06
4.69229e-06
4.69228e-06
4.69227e-06
4.69224e-06
4.69223e-06
4.69223e-06
4.69223e-06
4.69223e-06
4.69224e-06
4.69225e-06
4.69226e-06
4.69227e-06
4.69228e-06
4.69229e-06
4.6923e-06
4.6923e-06
4.6923e-06
4.6923e-06
4.69229e-06
4.69228e-06
4.69227e-06
4.69226e-06
4.69225e-06
4.69223e-06
4.69222e-06
4.69221e-06
4.69221e-06
4.69222e-06
4.69222e-06
4.69223e-06
4.69224e-06
4.69225e-06
4.69226e-06
4.69227e-06
4.69228e-06
4.69228e-06
4.69228e-06
4.69228e-06
4.69228e-06
4.69227e-06
4.69226e-06
4.69224e-06
4.69223e-06
4.69221e-06
4.69221e-06
4.6922e-06
4.6922e-06
4.6922e-06
4.69221e-06
4.69221e-06
4.69222e-06
4.69223e-06
4.69224e-06
4.69225e-06
4.69226e-06
4.69226e-06
4.69227e-06
4.69226e-06
4.69226e-06
4.69225e-06
4.69224e-06
4.69223e-06
4.69222e-06
4.6922e-06
4.6922e-06
4.69219e-06
4.69219e-06
4.69219e-06
4.69219e-06
4.6922e-06
4.69221e-06
4.69222e-06
4.69223e-06
4.69224e-06
4.69224e-06
4.69225e-06
4.69225e-06
4.69225e-06
4.69225e-06
4.69224e-06
4.69223e-06
4.69222e-06
4.69221e-06
4.69219e-06
4.69219e-06
4.69218e-06
4.69218e-06
4.69218e-06
4.69218e-06
4.69219e-06
4.6922e-06
4.69221e-06
4.69222e-06
4.69222e-06
4.69223e-06
4.69224e-06
4.69224e-06
4.69224e-06
4.69224e-06
4.69223e-06
4.69222e-06
4.69221e-06
4.6922e-06
4.69219e-06
4.69218e-06
4.69218e-06
4.69217e-06
4.69217e-06
4.69218e-06
4.69218e-06
4.69219e-06
4.6922e-06
4.69221e-06
4.69222e-06
4.69223e-06
4.69223e-06
4.69223e-06
4.69223e-06
4.69223e-06
4.69222e-06
4.69222e-06
4.69221e-06
4.6922e-06
4.6922e-06
4.69219e-06
4.69218e-06
4.69218e-06
4.69218e-06
4.69219e-06
4.69219e-06
4.6922e-06
4.69221e-06
4.69222e-06
4.69222e-06
4.69223e-06
4.69224e-06
4.69224e-06
4.69224e-06
4.69224e-06
4.69223e-06
4.69222e-06
4.69221e-06
4.6922e-06
4.6944e-06
4.69473e-06
4.69434e-06
4.69428e-06
4.69477e-06
4.69439e-06
4.69432e-06
4.69494e-06
4.69447e-06
4.69506e-06
4.69451e-06
4.69513e-06
4.69454e-06
4.69513e-06
4.69527e-06
4.69451e-06
4.69498e-06
4.69443e-06
4.69433e-06
4.69482e-06
2.21625e-06
1.88244e-06
1.74698e-06
1.82714e-06
2.09917e-06
2.51204e-06
2.99105e-06
3.469e-06
3.89964e-06
4.25705e-06
4.53008e-06
4.71322e-06
4.79974e-06
4.78335e-06
4.66437e-06
4.4466e-06
4.13139e-06
3.72304e-06
3.23879e-06
2.72293e-06
2.03505e-06
2.3472e-06
2.84883e-06
3.42278e-06
3.95935e-06
4.38931e-06
4.69829e-06
4.89891e-06
5.0112e-06
5.07475e-06
5.1455e-06
5.23227e-06
5.27035e-06
5.17459e-06
4.88788e-06
4.38258e-06
3.70096e-06
2.982e-06
2.40262e-06
2.09454e-06
3.04867e-06
3.6376e-06
4.14164e-06
4.51263e-06
4.75256e-06
4.88641e-06
4.95121e-06
4.97913e-06
4.97637e-06
5.09017e-06
5.49381e-06
6.03468e-06
6.27244e-06
5.87856e-06
4.90714e-06
3.70892e-06
2.72242e-06
2.21912e-06
2.2095e-06
2.55995e-06
4.02762e-06
4.40301e-06
4.6414e-06
4.76956e-06
4.82788e-06
4.8514e-06
4.8635e-06
4.8729e-06
4.85002e-06
5.37567e-06
6.90446e-06
8.73813e-06
9.43091e-06
8.25396e-06
6.09299e-06
4.11941e-06
3.0383e-06
2.80952e-06
3.09001e-06
3.57215e-06
4.53995e-06
4.68298e-06
4.75319e-06
4.78215e-06
4.79374e-06
4.79995e-06
4.80722e-06
4.81756e-06
4.86352e-06
6.44247e-06
1.01464e-05
1.434e-05
1.66045e-05
1.53883e-05
1.08958e-05
6.62601e-06
4.52518e-06
3.97067e-06
4.06725e-06
4.32746e-06
4.68397e-06
4.73188e-06
4.74979e-06
4.75516e-06
4.75795e-06
4.76157e-06
4.76858e-06
4.78052e-06
4.92042e-06
6.96111e-06
1.06461e-05
1.37909e-05
1.41794e-05
1.13321e-05
7.58408e-06
5.2085e-06
4.35192e-06
4.27239e-06
4.43173e-06
4.59069e-06
4.69759e-06
4.72134e-06
4.72958e-06
4.73288e-06
4.7361e-06
4.74012e-06
4.74685e-06
4.7581e-06
4.89533e-06
5.92199e-06
7.30419e-06
8.77944e-06
9.14598e-06
7.29535e-06
5.29916e-06
4.34095e-06
4.19161e-06
4.34989e-06
4.53011e-06
4.64507e-06
4.70012e-06
4.71433e-06
4.71879e-06
4.72052e-06
4.72256e-06
4.7257e-06
4.73113e-06
4.73988e-06
4.7509e-06
3.93846e-06
2.76914e-06
2.06823e-06
2.15416e-06
2.73909e-06
3.19971e-06
3.62311e-06
4.0444e-06
4.37219e-06
4.56873e-06
4.66353e-06
4.70314e-06
4.70956e-06
4.71157e-06
4.71284e-06
4.71462e-06
4.71738e-06
4.72167e-06
4.72932e-06
4.73671e-06
3.84077e-06
2.7243e-06
1.96864e-06
1.79824e-06
2.2224e-06
2.93453e-06
3.63999e-06
4.16589e-06
4.47537e-06
4.62375e-06
4.68327e-06
4.70417e-06
4.70675e-06
4.70754e-06
4.70824e-06
4.70939e-06
4.71145e-06
4.71465e-06
4.72107e-06
4.72574e-06
3.70076e-06
2.57304e-06
1.87437e-06
1.7738e-06
2.30217e-06
3.13268e-06
3.86823e-06
4.33528e-06
4.56723e-06
4.66192e-06
4.6946e-06
4.7029e-06
4.70423e-06
4.70476e-06
4.70537e-06
4.70627e-06
4.70786e-06
4.71019e-06
4.7153e-06
4.71726e-06
3.58202e-06
2.45277e-06
1.81039e-06
1.83807e-06
2.50462e-06
3.38266e-06
4.06469e-06
4.44696e-06
4.61606e-06
4.67817e-06
4.69764e-06
4.70187e-06
4.70281e-06
4.70318e-06
4.70359e-06
4.7042e-06
4.70532e-06
4.70705e-06
4.71098e-06
4.71207e-06
3.49296e-06
2.38865e-06
1.83633e-06
1.96643e-06
2.69836e-06
3.55979e-06
4.17795e-06
4.5018e-06
4.63689e-06
4.68402e-06
4.69816e-06
4.70098e-06
4.70182e-06
4.70216e-06
4.7025e-06
4.70296e-06
4.70372e-06
4.70495e-06
4.70766e-06
4.70773e-06
3.43793e-06
2.29974e-06
1.74375e-06
1.96441e-06
2.76826e-06
3.63387e-06
4.22425e-06
4.5228e-06
4.64404e-06
4.68548e-06
4.69775e-06
4.70048e-06
4.70127e-06
4.70156e-06
4.70181e-06
4.70212e-06
4.70261e-06
4.70346e-06
4.70527e-06
4.70679e-06
3.42196e-06
2.34898e-06
1.84644e-06
2.06834e-06
2.84281e-06
3.67572e-06
4.24414e-06
4.53088e-06
4.64663e-06
4.68589e-06
4.69744e-06
4.70025e-06
4.70093e-06
4.70117e-06
4.70137e-06
4.7016e-06
4.70192e-06
4.70251e-06
4.70365e-06
4.70497e-06
3.37978e-06
2.22773e-06
1.77906e-06
2.11609e-06
2.93588e-06
3.75123e-06
4.28587e-06
4.54874e-06
4.65281e-06
4.68754e-06
4.69762e-06
4.70037e-06
4.70077e-06
4.70094e-06
4.70108e-06
4.70124e-06
4.70143e-06
4.70167e-06
4.70209e-06
4.70184e-06
3.6032e-06
2.33113e-06
1.94246e-06
2.40185e-06
3.24208e-06
3.97424e-06
4.40472e-06
4.59854e-06
4.67004e-06
4.69257e-06
4.6988e-06
4.70063e-06
4.7007e-06
4.70078e-06
4.70089e-06
4.70101e-06
4.70116e-06
4.70133e-06
4.70158e-06
4.70146e-06
4.57182e-06
4.50258e-06
4.53895e-06
4.60318e-06
4.64551e-06
4.66512e-06
4.68217e-06
4.69319e-06
4.69822e-06
4.69998e-06
4.70048e-06
4.70056e-06
4.7006e-06
4.70066e-06
4.70074e-06
4.70083e-06
4.70093e-06
4.70104e-06
4.70118e-06
4.70138e-06
4.69816e-06
4.69673e-06
4.6978e-06
4.69936e-06
4.70015e-06
4.70026e-06
4.70038e-06
4.70051e-06
4.70056e-06
4.70055e-06
4.70055e-06
4.70048e-06
4.70051e-06
4.70056e-06
4.70062e-06
4.7007e-06
4.70078e-06
4.70086e-06
4.70094e-06
4.70099e-06
4.70097e-06
4.70087e-06
4.70086e-06
4.7009e-06
4.70087e-06
4.7008e-06
4.70072e-06
4.70063e-06
4.70056e-06
4.7005e-06
4.70048e-06
4.70042e-06
4.70044e-06
4.70048e-06
4.70053e-06
4.70059e-06
4.70066e-06
4.70072e-06
4.70079e-06
4.70084e-06
4.70084e-06
4.70077e-06
4.70072e-06
4.70072e-06
4.70071e-06
4.70068e-06
4.70062e-06
4.70054e-06
4.70048e-06
4.70044e-06
4.70042e-06
4.70036e-06
4.70038e-06
4.70041e-06
4.70045e-06
4.7005e-06
4.70055e-06
4.70061e-06
4.70065e-06
4.70068e-06
4.70069e-06
4.70066e-06
4.70064e-06
4.70063e-06
4.70061e-06
4.70057e-06
4.70052e-06
4.70047e-06
4.70042e-06
4.70038e-06
4.70037e-06
4.70031e-06
4.70032e-06
4.70035e-06
4.70038e-06
4.70042e-06
4.70047e-06
4.70051e-06
4.70055e-06
4.70058e-06
4.70059e-06
4.70057e-06
4.70055e-06
4.70054e-06
4.70052e-06
4.7005e-06
4.70046e-06
4.70041e-06
4.70037e-06
4.70034e-06
4.70032e-06
4.70027e-06
4.70028e-06
4.70029e-06
4.70032e-06
4.70035e-06
4.70039e-06
4.70043e-06
4.70046e-06
4.70048e-06
4.7005e-06
4.70049e-06
4.70048e-06
4.70047e-06
4.70045e-06
4.70043e-06
4.70039e-06
4.70036e-06
4.70032e-06
4.70029e-06
4.70028e-06
4.70023e-06
4.70023e-06
4.70024e-06
4.70026e-06
4.70029e-06
4.70032e-06
4.70036e-06
4.70039e-06
4.70041e-06
4.70042e-06
4.70042e-06
4.70041e-06
4.7004e-06
4.70039e-06
4.70037e-06
4.70034e-06
4.70031e-06
4.70028e-06
4.70025e-06
4.70023e-06
4.70019e-06
4.70019e-06
4.7002e-06
4.70021e-06
4.70024e-06
4.70026e-06
4.70029e-06
4.70032e-06
4.70034e-06
4.70035e-06
4.70035e-06
4.70035e-06
4.70035e-06
4.70033e-06
4.70032e-06
4.70029e-06
4.70026e-06
4.70024e-06
4.70021e-06
4.7002e-06
4.70015e-06
4.70015e-06
4.70016e-06
4.70017e-06
4.70019e-06
4.70021e-06
4.70023e-06
4.70026e-06
4.70028e-06
4.70029e-06
4.70029e-06
4.70029e-06
4.70029e-06
4.70028e-06
4.70027e-06
4.70025e-06
4.70022e-06
4.7002e-06
4.70018e-06
4.70016e-06
4.70012e-06
4.70012e-06
4.70012e-06
4.70013e-06
4.70014e-06
4.70016e-06
4.70018e-06
4.7002e-06
4.70022e-06
4.70024e-06
4.70024e-06
4.70024e-06
4.70024e-06
4.70024e-06
4.70022e-06
4.70021e-06
4.70018e-06
4.70016e-06
4.70014e-06
4.70013e-06
4.70009e-06
4.70008e-06
4.70009e-06
4.70009e-06
4.70011e-06
4.70012e-06
4.70014e-06
4.70016e-06
4.70017e-06
4.70019e-06
4.70019e-06
4.7002e-06
4.7002e-06
4.70019e-06
4.70018e-06
4.70017e-06
4.70015e-06
4.70013e-06
4.70011e-06
4.7001e-06
4.70006e-06
4.70005e-06
4.70006e-06
4.70006e-06
4.70007e-06
4.70008e-06
4.7001e-06
4.70012e-06
4.70013e-06
4.70014e-06
4.70015e-06
4.70016e-06
4.70016e-06
4.70015e-06
4.70015e-06
4.70013e-06
4.70012e-06
4.7001e-06
4.70008e-06
4.70007e-06
4.70003e-06
4.70003e-06
4.70003e-06
4.70003e-06
4.70004e-06
4.70005e-06
4.70006e-06
4.70008e-06
4.70009e-06
4.70011e-06
4.70011e-06
4.70012e-06
4.70012e-06
4.70012e-06
4.70011e-06
4.7001e-06
4.70009e-06
4.70007e-06
4.70006e-06
4.70004e-06
4.70001e-06
4.70001e-06
4.7e-06
4.70001e-06
4.70001e-06
4.70002e-06
4.70003e-06
4.70005e-06
4.70006e-06
4.70007e-06
4.70008e-06
4.70009e-06
4.70009e-06
4.70009e-06
4.70008e-06
4.70007e-06
4.70006e-06
4.70005e-06
4.70003e-06
4.70002e-06
4.69999e-06
4.69999e-06
4.69998e-06
4.69998e-06
4.69999e-06
4.7e-06
4.70001e-06
4.70002e-06
4.70003e-06
4.70004e-06
4.70005e-06
4.70006e-06
4.70006e-06
4.70006e-06
4.70006e-06
4.70005e-06
4.70004e-06
4.70003e-06
4.70001e-06
4.7e-06
4.69997e-06
4.69997e-06
4.69996e-06
4.69996e-06
4.69997e-06
4.69997e-06
4.69998e-06
4.69999e-06
4.70001e-06
4.70002e-06
4.70003e-06
4.70003e-06
4.70004e-06
4.70004e-06
4.70003e-06
4.70003e-06
4.70002e-06
4.70001e-06
4.69999e-06
4.69998e-06
4.69996e-06
4.69995e-06
4.69995e-06
4.69995e-06
4.69995e-06
4.69996e-06
4.69996e-06
4.69997e-06
4.69998e-06
4.7e-06
4.7e-06
4.70001e-06
4.70002e-06
4.70002e-06
4.70002e-06
4.70001e-06
4.7e-06
4.69999e-06
4.69998e-06
4.69997e-06
4.69995e-06
4.69994e-06
4.69993e-06
4.69993e-06
4.69993e-06
4.69994e-06
4.69995e-06
4.69996e-06
4.69997e-06
4.69998e-06
4.69999e-06
4.69999e-06
4.7e-06
4.7e-06
4.7e-06
4.69999e-06
4.69998e-06
4.69997e-06
4.69996e-06
4.69995e-06
4.69994e-06
4.69993e-06
4.69992e-06
4.69992e-06
4.69992e-06
4.69993e-06
4.69993e-06
4.69994e-06
4.69995e-06
4.69996e-06
4.69997e-06
4.69998e-06
4.69998e-06
4.69999e-06
4.69999e-06
4.69998e-06
4.69997e-06
4.69996e-06
4.69995e-06
4.69994e-06
4.69993e-06
4.69992e-06
4.69991e-06
4.69991e-06
4.69991e-06
4.69992e-06
4.69992e-06
4.69993e-06
4.69994e-06
4.69995e-06
4.69996e-06
4.69997e-06
4.69997e-06
4.69997e-06
4.69997e-06
4.69997e-06
4.69996e-06
4.69995e-06
4.69994e-06
4.69993e-06
4.69992e-06
4.69992e-06
4.69991e-06
4.69991e-06
4.69991e-06
4.69991e-06
4.69992e-06
4.69992e-06
4.69993e-06
4.69994e-06
4.69995e-06
4.69996e-06
4.69996e-06
4.69997e-06
4.69997e-06
4.69996e-06
4.69996e-06
4.69995e-06
4.69994e-06
4.69993e-06
4.69993e-06
4.69992e-06
4.69992e-06
4.69991e-06
4.69991e-06
4.69992e-06
4.69992e-06
4.69993e-06
4.69994e-06
4.69995e-06
4.69996e-06
4.69997e-06
4.69997e-06
4.69997e-06
4.69997e-06
4.69997e-06
4.69996e-06
4.69995e-06
4.69995e-06
4.69994e-06
4.70205e-06
4.70235e-06
4.70199e-06
4.70195e-06
4.70239e-06
4.70205e-06
4.70199e-06
4.70256e-06
4.70213e-06
4.70267e-06
4.70216e-06
4.70273e-06
4.70218e-06
4.70273e-06
4.70285e-06
4.70215e-06
4.70258e-06
4.70208e-06
4.70199e-06
4.70244e-06
2.13893e-06
1.83801e-06
1.74583e-06
1.87044e-06
2.18004e-06
2.61719e-06
3.10449e-06
3.57846e-06
3.99695e-06
4.33741e-06
4.5913e-06
4.75467e-06
4.82101e-06
4.78342e-06
4.64242e-06
4.40324e-06
4.06773e-06
3.64146e-06
3.14513e-06
2.62886e-06
2.13217e-06
2.47185e-06
2.98459e-06
3.55e-06
4.06327e-06
4.46526e-06
4.74896e-06
4.9296e-06
5.02574e-06
5.07824e-06
5.15039e-06
5.25523e-06
5.32328e-06
5.25826e-06
4.98937e-06
4.4785e-06
3.77391e-06
3.03354e-06
2.45108e-06
2.16167e-06
3.19074e-06
3.75611e-06
4.22887e-06
4.56977e-06
4.78569e-06
4.90289e-06
4.95882e-06
4.98223e-06
4.97274e-06
5.09122e-06
5.53569e-06
6.14889e-06
6.45393e-06
6.08695e-06
5.09742e-06
3.85844e-06
2.84436e-06
2.34108e-06
2.3465e-06
2.70686e-06
4.11372e-06
4.46032e-06
4.67507e-06
4.78751e-06
4.83726e-06
4.85722e-06
4.86819e-06
4.87721e-06
4.84343e-06
5.39493e-06
7.04005e-06
9.03897e-06
9.822e-06
8.59483e-06
6.32664e-06
4.26618e-06
3.15753e-06
2.9319e-06
3.21359e-06
3.68218e-06
4.58095e-06
4.70587e-06
4.76582e-06
4.78997e-06
4.79977e-06
4.80546e-06
4.81273e-06
4.823e-06
4.85708e-06
6.53491e-06
1.05348e-05
1.51292e-05
1.76837e-05
1.64059e-05
1.15321e-05
6.94518e-06
4.70882e-06
4.1013e-06
4.16369e-06
4.39324e-06
4.70297e-06
4.74298e-06
4.75754e-06
4.76176e-06
4.76436e-06
4.768e-06
4.77511e-06
4.78704e-06
4.92361e-06
7.12494e-06
1.11779e-05
1.47076e-05
1.51916e-05
1.2091e-05
8.01442e-06
5.438e-06
4.49208e-06
4.36442e-06
4.4896e-06
4.62428e-06
4.71174e-06
4.73076e-06
4.73729e-06
4.74007e-06
4.74316e-06
4.74714e-06
4.75388e-06
4.76509e-06
4.90141e-06
6.04436e-06
7.68631e-06
9.51904e-06
1.00264e-05
7.95501e-06
5.68698e-06
4.56499e-06
4.328e-06
4.43116e-06
4.57542e-06
4.66938e-06
4.71148e-06
4.72288e-06
4.72643e-06
4.72793e-06
4.72995e-06
4.73308e-06
4.73852e-06
4.74726e-06
4.75822e-06
3.90622e-06
2.72454e-06
2.06691e-06
2.25152e-06
2.92182e-06
3.3855e-06
3.77287e-06
4.14772e-06
4.43403e-06
4.60224e-06
4.68163e-06
4.71236e-06
4.71758e-06
4.71925e-06
4.72046e-06
4.72222e-06
4.72497e-06
4.72924e-06
4.73688e-06
4.74412e-06
3.80583e-06
2.67819e-06
1.94208e-06
1.81824e-06
2.29809e-06
3.03827e-06
3.7349e-06
4.23217e-06
4.51407e-06
4.6449e-06
4.69584e-06
4.71241e-06
4.71456e-06
4.71526e-06
4.71595e-06
4.71711e-06
4.71917e-06
4.72235e-06
4.72878e-06
4.73325e-06
3.66348e-06
2.53116e-06
1.84956e-06
1.78038e-06
2.3482e-06
3.19954e-06
3.92781e-06
4.37507e-06
4.59032e-06
4.67564e-06
4.70426e-06
4.71091e-06
4.71206e-06
4.71255e-06
4.71316e-06
4.71407e-06
4.71566e-06
4.71796e-06
4.72308e-06
4.7248e-06
3.54285e-06
2.41439e-06
1.78956e-06
1.84549e-06
2.54272e-06
3.43273e-06
4.10607e-06
4.4737e-06
4.6322e-06
4.68898e-06
4.70633e-06
4.70984e-06
4.71066e-06
4.71101e-06
4.71143e-06
4.71205e-06
4.71316e-06
4.71488e-06
4.71881e-06
4.71968e-06
3.45216e-06
2.35513e-06
1.8216e-06
1.9768e-06
2.73378e-06
3.60233e-06
4.21156e-06
4.52343e-06
4.65053e-06
4.69387e-06
4.70657e-06
4.70896e-06
4.7097e-06
4.71002e-06
4.71037e-06
4.71082e-06
4.71158e-06
4.71281e-06
4.71552e-06
4.71541e-06
3.3968e-06
2.2659e-06
1.72953e-06
1.97656e-06
2.80332e-06
3.67385e-06
4.25515e-06
4.54269e-06
4.65689e-06
4.69505e-06
4.70611e-06
4.70847e-06
4.70917e-06
4.70944e-06
4.70969e-06
4.71e-06
4.71049e-06
4.71134e-06
4.71314e-06
4.71456e-06
3.38139e-06
2.32025e-06
1.83546e-06
2.08086e-06
2.87665e-06
3.71427e-06
4.27403e-06
4.55021e-06
4.65922e-06
4.69537e-06
4.70578e-06
4.70824e-06
4.70883e-06
4.70906e-06
4.70926e-06
4.70949e-06
4.70981e-06
4.7104e-06
4.71154e-06
4.71279e-06
3.33759e-06
2.19537e-06
1.76884e-06
2.13152e-06
2.97117e-06
3.78919e-06
4.31451e-06
4.56714e-06
4.66493e-06
4.69685e-06
4.70592e-06
4.70831e-06
4.70867e-06
4.70883e-06
4.70897e-06
4.70913e-06
4.70932e-06
4.70957e-06
4.70999e-06
4.70975e-06
3.56576e-06
2.28559e-06
1.92765e-06
2.4223e-06
3.28166e-06
4.01112e-06
4.43004e-06
4.61439e-06
4.6809e-06
4.70139e-06
4.70694e-06
4.70852e-06
4.70859e-06
4.70867e-06
4.70878e-06
4.7089e-06
4.70905e-06
4.70923e-06
4.70948e-06
4.70935e-06
4.57443e-06
4.50784e-06
4.54863e-06
4.61404e-06
4.65537e-06
4.67467e-06
4.69131e-06
4.70175e-06
4.70638e-06
4.70795e-06
4.70839e-06
4.70845e-06
4.70849e-06
4.70855e-06
4.70863e-06
4.70872e-06
4.70883e-06
4.70894e-06
4.70908e-06
4.70927e-06
4.70594e-06
4.70461e-06
4.70578e-06
4.70734e-06
4.70808e-06
4.70818e-06
4.7083e-06
4.70841e-06
4.70845e-06
4.70844e-06
4.70843e-06
4.70837e-06
4.7084e-06
4.70845e-06
4.70852e-06
4.70859e-06
4.70868e-06
4.70876e-06
4.70884e-06
4.70888e-06
4.70886e-06
4.70877e-06
4.70876e-06
4.70879e-06
4.70876e-06
4.70869e-06
4.7086e-06
4.70851e-06
4.70844e-06
4.70839e-06
4.70837e-06
4.70831e-06
4.70833e-06
4.70837e-06
4.70842e-06
4.70848e-06
4.70855e-06
4.70862e-06
4.70868e-06
4.70873e-06
4.70873e-06
4.70867e-06
4.70861e-06
4.70861e-06
4.7086e-06
4.70857e-06
4.7085e-06
4.70843e-06
4.70836e-06
4.70832e-06
4.7083e-06
4.70825e-06
4.70827e-06
4.7083e-06
4.70834e-06
4.70839e-06
4.70845e-06
4.7085e-06
4.70855e-06
4.70858e-06
4.70858e-06
4.70855e-06
4.70853e-06
4.70852e-06
4.7085e-06
4.70846e-06
4.70841e-06
4.70835e-06
4.70831e-06
4.70827e-06
4.70825e-06
4.7082e-06
4.70822e-06
4.70824e-06
4.70827e-06
4.70832e-06
4.70836e-06
4.70841e-06
4.70845e-06
4.70848e-06
4.70848e-06
4.70846e-06
4.70844e-06
4.70843e-06
4.70841e-06
4.70838e-06
4.70834e-06
4.7083e-06
4.70825e-06
4.70822e-06
4.70821e-06
4.70816e-06
4.70817e-06
4.70819e-06
4.70821e-06
4.70825e-06
4.70828e-06
4.70832e-06
4.70836e-06
4.70838e-06
4.70839e-06
4.70838e-06
4.70837e-06
4.70836e-06
4.70834e-06
4.70832e-06
4.70828e-06
4.70824e-06
4.70821e-06
4.70818e-06
4.70816e-06
4.70812e-06
4.70812e-06
4.70814e-06
4.70816e-06
4.70818e-06
4.70822e-06
4.70825e-06
4.70828e-06
4.7083e-06
4.70832e-06
4.70831e-06
4.7083e-06
4.70829e-06
4.70828e-06
4.70826e-06
4.70823e-06
4.7082e-06
4.70817e-06
4.70814e-06
4.70812e-06
4.70808e-06
4.70808e-06
4.70809e-06
4.70811e-06
4.70813e-06
4.70816e-06
4.70818e-06
4.70821e-06
4.70823e-06
4.70824e-06
4.70824e-06
4.70824e-06
4.70824e-06
4.70822e-06
4.70821e-06
4.70818e-06
4.70815e-06
4.70812e-06
4.7081e-06
4.70809e-06
4.70804e-06
4.70804e-06
4.70805e-06
4.70806e-06
4.70808e-06
4.7081e-06
4.70813e-06
4.70815e-06
4.70817e-06
4.70818e-06
4.70819e-06
4.70819e-06
4.70818e-06
4.70817e-06
4.70816e-06
4.70814e-06
4.70811e-06
4.70809e-06
4.70806e-06
4.70805e-06
4.70801e-06
4.70801e-06
4.70801e-06
4.70802e-06
4.70804e-06
4.70806e-06
4.70808e-06
4.7081e-06
4.70811e-06
4.70813e-06
4.70813e-06
4.70814e-06
4.70813e-06
4.70813e-06
4.70811e-06
4.7081e-06
4.70807e-06
4.70805e-06
4.70803e-06
4.70802e-06
4.70798e-06
4.70797e-06
4.70798e-06
4.70798e-06
4.708e-06
4.70801e-06
4.70803e-06
4.70805e-06
4.70807e-06
4.70808e-06
4.70809e-06
4.70809e-06
4.70809e-06
4.70808e-06
4.70807e-06
4.70806e-06
4.70804e-06
4.70802e-06
4.708e-06
4.70799e-06
4.70795e-06
4.70794e-06
4.70795e-06
4.70795e-06
4.70796e-06
4.70798e-06
4.70799e-06
4.70801e-06
4.70802e-06
4.70804e-06
4.70804e-06
4.70805e-06
4.70805e-06
4.70805e-06
4.70804e-06
4.70802e-06
4.70801e-06
4.70799e-06
4.70797e-06
4.70796e-06
4.70792e-06
4.70792e-06
4.70792e-06
4.70792e-06
4.70793e-06
4.70794e-06
4.70796e-06
4.70797e-06
4.70798e-06
4.708e-06
4.708e-06
4.70801e-06
4.70801e-06
4.70801e-06
4.708e-06
4.70799e-06
4.70798e-06
4.70796e-06
4.70795e-06
4.70793e-06
4.7079e-06
4.7079e-06
4.70789e-06
4.7079e-06
4.7079e-06
4.70791e-06
4.70792e-06
4.70794e-06
4.70795e-06
4.70796e-06
4.70797e-06
4.70798e-06
4.70798e-06
4.70798e-06
4.70797e-06
4.70796e-06
4.70795e-06
4.70794e-06
4.70792e-06
4.70791e-06
4.70788e-06
4.70787e-06
4.70787e-06
4.70787e-06
4.70788e-06
4.70789e-06
4.7079e-06
4.70791e-06
4.70792e-06
4.70793e-06
4.70794e-06
4.70795e-06
4.70795e-06
4.70795e-06
4.70795e-06
4.70794e-06
4.70793e-06
4.70791e-06
4.7079e-06
4.70789e-06
4.70786e-06
4.70786e-06
4.70785e-06
4.70785e-06
4.70786e-06
4.70787e-06
4.70787e-06
4.70789e-06
4.7079e-06
4.70791e-06
4.70792e-06
4.70792e-06
4.70793e-06
4.70793e-06
4.70792e-06
4.70792e-06
4.70791e-06
4.70789e-06
4.70788e-06
4.70787e-06
4.70785e-06
4.70784e-06
4.70784e-06
4.70784e-06
4.70784e-06
4.70785e-06
4.70785e-06
4.70787e-06
4.70788e-06
4.70789e-06
4.7079e-06
4.7079e-06
4.70791e-06
4.70791e-06
4.70791e-06
4.7079e-06
4.70789e-06
4.70788e-06
4.70787e-06
4.70786e-06
4.70783e-06
4.70783e-06
4.70782e-06
4.70782e-06
4.70783e-06
4.70783e-06
4.70784e-06
4.70785e-06
4.70786e-06
4.70787e-06
4.70788e-06
4.70788e-06
4.70789e-06
4.70789e-06
4.70789e-06
4.70788e-06
4.70787e-06
4.70786e-06
4.70785e-06
4.70784e-06
4.70782e-06
4.70782e-06
4.70781e-06
4.70781e-06
4.70781e-06
4.70782e-06
4.70782e-06
4.70783e-06
4.70784e-06
4.70785e-06
4.70786e-06
4.70787e-06
4.70787e-06
4.70788e-06
4.70788e-06
4.70787e-06
4.70786e-06
4.70785e-06
4.70784e-06
4.70783e-06
4.70782e-06
4.70781e-06
4.7078e-06
4.7078e-06
4.7078e-06
4.70781e-06
4.70781e-06
4.70782e-06
4.70783e-06
4.70784e-06
4.70785e-06
4.70786e-06
4.70786e-06
4.70786e-06
4.70786e-06
4.70786e-06
4.70785e-06
4.70784e-06
4.70783e-06
4.70782e-06
4.70781e-06
4.70781e-06
4.7078e-06
4.7078e-06
4.7078e-06
4.7078e-06
4.70781e-06
4.70781e-06
4.70782e-06
4.70783e-06
4.70784e-06
4.70785e-06
4.70786e-06
4.70786e-06
4.70786e-06
4.70785e-06
4.70785e-06
4.70784e-06
4.70783e-06
4.70782e-06
4.70782e-06
4.70781e-06
4.70781e-06
4.7078e-06
4.7078e-06
4.70781e-06
4.70781e-06
4.70782e-06
4.70783e-06
4.70784e-06
4.70785e-06
4.70785e-06
4.70786e-06
4.70786e-06
4.70786e-06
4.70786e-06
4.70785e-06
4.70784e-06
4.70783e-06
4.70783e-06
4.70986e-06
4.71012e-06
4.7098e-06
4.70977e-06
4.71017e-06
4.70986e-06
4.70981e-06
4.71034e-06
4.70994e-06
4.71043e-06
4.70996e-06
4.7105e-06
4.70999e-06
4.7105e-06
4.7106e-06
4.70995e-06
4.71034e-06
4.70989e-06
4.70982e-06
4.71022e-06
2.0655e-06
1.80157e-06
1.75521e-06
1.9246e-06
2.27027e-06
2.72781e-06
3.22032e-06
3.68792e-06
4.09249e-06
4.4147e-06
4.64845e-06
4.79133e-06
4.8369e-06
4.77763e-06
4.61428e-06
4.35351e-06
3.99772e-06
3.55405e-06
3.04733e-06
2.53392e-06
2.23659e-06
2.60076e-06
3.1203e-06
3.6736e-06
4.16178e-06
4.53648e-06
4.79585e-06
4.95752e-06
5.03782e-06
5.07905e-06
5.15319e-06
5.27868e-06
5.38107e-06
5.35156e-06
5.10302e-06
4.58554e-06
3.85508e-06
3.09144e-06
2.50613e-06
2.23636e-06
3.32825e-06
3.86861e-06
4.31029e-06
4.62224e-06
4.81558e-06
4.91766e-06
4.9657e-06
4.98509e-06
4.96793e-06
5.0893e-06
5.57386e-06