/*--------------------------------*- C++ -*----------------------------------*\
| =========                 |                                                 |
| \\      /  F ield         | OpenFOAM: The Open Source CFD Toolbox           |
|  \\    /   O peration     | Version:  2.4.0                                 |
|   \\  /    A nd           | Web:      www.OpenFOAM.org                      |
|    \\/     M anipulation  |                                                 |
\*---------------------------------------------------------------------------*/
FoamFile
{
    version     2.0;
    format      ascii;
    class       volScalarField;
    location    "150";
    object      p;
}
// * * * * * * * * * * * * * * * * * * * * * * * * * * * * * * * * * * * * * //

dimensions      [0 2 -2 0 0 0 0];

internalField   nonuniform List<scalar> 
283312
(
-0.0062296
-0.00629371
-0.00653839
-0.00688214
-0.00723581
-0.00752978
-0.00775701
-0.00791361
-0.00803312
-0.00813986
-0.00825445
-0.00836368
-0.00843532
-0.00841374
-0.00826409
-0.0079934
-0.00761382
-0.00716149
-0.00671754
-0.00638069
0.0021468
0.00164043
0.00121126
0.000941182
0.000842531
0.000909211
0.00105375
0.00119628
0.00130863
0.00139869
0.00146904
0.00155148
0.00168317
0.00188633
0.00217251
0.0025409
0.00285555
0.00300446
0.00292478
0.00261506
-0.0023098
-0.00215409
-0.00192539
-0.0016808
-0.00148554
-0.00138675
-0.00136783
-0.00137367
-0.00142222
-0.00146247
-0.00148991
-0.00146476
-0.0013902
-0.00129006
-0.00124662
-0.00136038
-0.00161122
-0.00191431
-0.00218109
-0.00232436
0.00146613
0.00164066
0.00178653
0.00190317
0.0019874
0.00205711
0.00206459
0.00207193
0.00203992
0.00205353
0.00207522
0.00212552
0.00215158
0.00210295
0.00196852
0.00172225
0.00146975
0.00128657
0.00123512
0.00131362
-0.000743165
-0.000543937
-0.000426186
-0.000347144
-0.000343134
-0.000329782
-0.000340884
-0.000326381
-0.000354759
-0.000327065
-0.00032852
-0.000382697
-0.000569983
-0.000903601
-0.00134076
-0.00168456
-0.00177179
-0.00162425
-0.00133338
-0.00101224
0.0011966
0.0013057
0.00136359
0.00140941
0.00142363
0.00143165
0.00139785
0.00138576
0.00132325
0.00133936
0.00129439
0.00116999
0.000875623
0.000496741
0.000222745
0.000155489
0.000292254
0.0005426
0.000812349
0.00103888
-0.000149226
-0.000109313
-0.000102028
-9.59577e-05
-0.00010678
-8.136e-05
-8.15068e-05
-5.27369e-05
-8.27774e-05
-5.15592e-05
-0.000150903
-0.000414144
-0.00085236
-0.00129192
-0.00143802
-0.00127942
-0.000955562
-0.000634105
-0.00038693
-0.000230205
0.000758596
0.000807821
0.000831161
0.000855892
0.000844437
0.000841034
0.000803737
0.000783473
0.000715805
0.000709138
0.000564208
0.000262518
-0.000151244
-0.000367844
-0.000331298
-0.000101024
0.000188794
0.000420971
0.000586197
0.000692408
-1.75529e-07
2.38124e-06
-8.39104e-06
-9.97119e-06
-1.12952e-05
1.05507e-05
1.22266e-05
3.1693e-05
4.12702e-06
8.58603e-06
-0.000179946
-0.000579029
-0.000982214
-0.00107841
-0.000877828
-0.00059051
-0.000324032
-0.000156535
-5.84819e-05
-1.38652e-05
0.000439041
0.000464014
0.000474453
0.00048457
0.000471681
0.000463195
0.000432813
0.00041046
0.000358032
0.0003419
0.000165792
-0.000198922
-0.00044992
-0.000442569
-0.000218278
4.27961e-06
0.000188794
0.000295056
0.000366059
0.000408856
4.38366e-05
4.26138e-05
3.36652e-05
3.53845e-05
3.44716e-05
4.92988e-05
4.94659e-05
6.55824e-05
4.89366e-05
7.41824e-05
-0.000100397
-0.000526441
-0.000707423
-0.000628819
-0.000390268
-0.00020712
-6.97384e-05
-6.43913e-06
3.04086e-05
4.208e-05
0.000249793
0.000262001
0.000265456
0.000268212
0.000256815
0.000247842
0.000224293
0.000206824
0.000172351
0.00019171
5.70492e-05
-0.000222782
-0.000327693
-0.000223377
-4.51688e-05
6.81808e-05
0.00015324
0.000189542
0.000219145
0.000235459
5.47752e-05
5.54008e-05
5.07825e-05
5.40441e-05
5.26338e-05
6.37407e-05
6.33565e-05
8.70552e-05
8.42953e-05
0.000190776
7.76442e-05
-0.00026845
-0.000352832
-0.00028854
-0.00014457
-6.35028e-05
3.96061e-06
2.78893e-05
4.74168e-05
5.23817e-05
0.0001449
0.000150483
0.0001504
0.000150378
0.000140351
0.00013239
0.000113358
0.000101414
8.15462e-05
0.000138851
9.88096e-05
-4.98144e-05
-0.000107373
-5.26869e-05
3.37152e-05
7.05238e-05
0.000107868
0.00011753
0.000131928
0.000137804
5.24703e-05
5.46733e-05
5.30665e-05
5.64497e-05
5.50388e-05
6.39369e-05
6.43333e-05
9.31851e-05
0.000105737
0.000280867
0.000268208
-4.9585e-05
-0.000136562
-0.000139486
-7.51992e-05
-3.4963e-05
1.07836e-05
2.64471e-05
4.31936e-05
4.81971e-05
8.85843e-05
9.10982e-05
8.96836e-05
8.86816e-05
8.01262e-05
7.31415e-05
5.69413e-05
4.66261e-05
2.92669e-05
8.65958e-05
0.000196921
3.81256e-05
-1.88813e-05
-1.93642e-05
2.13592e-05
3.48489e-05
6.32776e-05
6.99869e-05
8.13057e-05
8.43475e-05
4.58665e-05
4.83918e-05
4.818e-05
5.08932e-05
4.96269e-05
5.5576e-05
5.55204e-05
7.22453e-05
6.88887e-05
0.000107842
6.75116e-05
-3.00248e-05
-3.97111e-05
-5.47626e-05
-2.10547e-05
-1.21197e-05
1.44322e-05
2.30931e-05
3.65571e-05
4.11312e-05
5.90626e-05
6.00218e-05
5.83729e-05
5.71537e-05
5.0279e-05
4.43643e-05
3.17315e-05
2.16104e-05
1.00181e-05
9.58509e-06
4.15256e-05
1.06089e-05
1.93593e-05
1.67119e-05
3.63284e-05
3.51003e-05
4.89553e-05
4.89926e-05
5.57264e-05
5.65862e-05
3.90636e-05
4.10897e-05
4.12746e-05
4.3053e-05
4.18338e-05
4.52583e-05
4.53398e-05
5.36726e-05
5.16158e-05
5.85614e-05
3.41214e-05
-1.50655e-05
-1.6627e-05
-3.05504e-05
-8.58977e-06
-4.83295e-06
1.42289e-05
2.02488e-05
3.10261e-05
3.47634e-05
4.33281e-05
4.35525e-05
4.21462e-05
4.0989e-05
3.57428e-05
3.10152e-05
2.16649e-05
1.30006e-05
4.53499e-06
-2.10341e-06
1.20068e-05
6.86309e-06
2.29856e-05
2.05772e-05
3.40523e-05
3.01274e-05
3.86818e-05
3.71553e-05
4.16582e-05
4.17026e-05
3.36265e-05
3.48345e-05
3.49961e-05
3.59154e-05
3.45244e-05
3.61375e-05
3.60212e-05
3.9501e-05
3.90456e-05
3.7978e-05
2.56217e-05
-5.0659e-06
-6.19387e-06
-1.72848e-05
-2.23261e-06
1.12592e-07
1.43452e-05
1.88831e-05
2.7312e-05
3.00107e-05
3.46233e-05
3.44545e-05
3.34599e-05
3.24555e-05
2.85738e-05
2.5032e-05
1.83685e-05
1.14612e-05
5.81606e-06
-7.57937e-07
7.0305e-06
7.18184e-06
2.18798e-05
1.9682e-05
2.9622e-05
2.58686e-05
3.17568e-05
3.02721e-05
3.35846e-05
3.34075e-05
2.98203e-05
3.01484e-05
3.02581e-05
3.04625e-05
2.89324e-05
2.92931e-05
2.87405e-05
2.9371e-05
2.99361e-05
2.61822e-05
2.11196e-05
8.06051e-07
9.65862e-07
-7.14928e-06
3.58799e-06
5.11548e-06
1.54861e-05
1.88602e-05
2.51741e-05
2.69083e-05
2.97658e-05
2.91405e-05
2.86018e-05
2.76712e-05
2.4675e-05
2.20996e-05
1.79694e-05
1.22214e-05
9.19309e-06
3.26225e-06
8.56039e-06
8.27261e-06
1.99325e-05
1.74501e-05
2.53087e-05
2.26261e-05
2.69489e-05
2.61286e-05
2.87642e-05
2.84447e-05
2.73806e-05
2.68412e-05
2.70612e-05
2.67992e-05
2.50535e-05
2.47301e-05
2.38244e-05
2.25891e-05
2.37625e-05
1.91873e-05
1.81644e-05
4.64965e-06
6.57974e-06
7.5245e-07
8.69608e-06
9.75159e-06
1.69315e-05
1.95022e-05
2.41051e-05
2.49308e-05
2.6986e-05
2.58332e-05
2.57592e-05
2.47505e-05
2.23304e-05
2.07523e-05
1.79559e-05
1.3241e-05
1.26734e-05
6.55832e-06
1.15206e-05
8.95229e-06
1.82478e-05
1.56697e-05
2.17901e-05
2.03957e-05
2.3677e-05
2.36794e-05
2.57708e-05
2.53334e-05
2.57208e-05
2.46893e-05
2.51793e-05
2.43105e-05
2.26851e-05
2.19878e-05
2.11508e-05
1.84072e-05
2.0096e-05
1.51152e-05
1.68392e-05
7.45019e-06
1.09276e-05
6.16192e-06
1.26216e-05
1.33494e-05
1.82757e-05
2.03949e-05
2.34281e-05
2.37948e-05
2.54625e-05
2.3356e-05
2.40907e-05
2.29947e-05
2.06818e-05
1.97452e-05
1.79633e-05
1.36885e-05
1.49898e-05
8.74655e-06
1.38487e-05
9.54165e-06
1.73604e-05
1.44066e-05
1.96144e-05
1.92204e-05
2.13071e-05
2.23337e-05
2.40278e-05
2.32645e-05
2.51747e-05
2.31312e-05
2.41855e-05
2.27255e-05
2.08715e-05
2.09037e-05
1.95336e-05
1.59835e-05
1.90358e-05
1.25884e-05
1.70398e-05
8.77489e-06
1.40652e-05
9.941e-06
1.50462e-05
1.62001e-05
1.90961e-05
2.12812e-05
2.29826e-05
2.27052e-05
2.42088e-05
2.16285e-05
2.32276e-05
2.15063e-05
1.95714e-05
1.9185e-05
1.80839e-05
1.31446e-05
1.65053e-05
9.5053e-06
1.56247e-05
9.68836e-06
1.73542e-05
1.32789e-05
1.82286e-05
1.85172e-05
1.98514e-05
2.17624e-05
2.25545e-05
2.19549e-05
2.51354e-05
2.13029e-05
2.38286e-05
2.22211e-05
1.9456e-05
2.00888e-05
1.89017e-05
1.44567e-05
1.89587e-05
1.12056e-05
1.77762e-05
9.55795e-06
1.6327e-05
1.19315e-05
1.68694e-05
1.82775e-05
1.88484e-05
2.20953e-05
2.3135e-05
2.17184e-05
2.37864e-05
1.9817e-05
2.27621e-05
2.05539e-05
1.80288e-05
1.92352e-05
1.7921e-05
1.21401e-05
1.79956e-05
8.69548e-06
1.7371e-05
8.81271e-06
1.74931e-05
1.23864e-05
1.70507e-05
1.85354e-05
1.84208e-05
2.15769e-05
2.15006e-05
2.02737e-05
2.50362e-05
2.01033e-05
2.39828e-05
2.1306e-05
1.83039e-05
2.017e-05
1.8566e-05
1.27533e-05
1.96268e-05
9.86054e-06
1.90156e-05
9.45279e-06
1.83091e-05
1.25216e-05
1.76059e-05
1.95204e-05
1.86662e-05
2.29275e-05
2.25732e-05
2.08243e-05
2.40467e-05
1.71756e-05
2.27939e-05
2.01988e-05
1.5476e-05
1.97439e-05
1.76884e-05
1.01678e-05
1.9181e-05
6.96181e-06
1.87673e-05
7.25686e-06
1.80478e-05
1.09003e-05
1.58529e-05
1.91621e-05
1.61741e-05
2.16827e-05
2.09023e-05
1.77596e-05
2.51432e-05
1.82693e-05
2.45439e-05
2.05918e-05
1.66865e-05
2.08925e-05
1.81773e-05
1.05334e-05
2.116e-05
7.58451e-06
2.08922e-05
7.88645e-06
1.99887e-05
1.17319e-05
1.77088e-05
2.04067e-05
1.74758e-05
2.38431e-05
2.18821e-05
1.94335e-05
2.41747e-05
1.39745e-05
2.36872e-05
1.91016e-05
1.21776e-05
2.09552e-05
1.72309e-05
6.48579e-06
2.0893e-05
3.47274e-06
2.06017e-05
4.08717e-06
1.90523e-05
8.10847e-06
1.43563e-05
1.9486e-05
1.33411e-05
2.24049e-05
1.94156e-05
1.46955e-05
2.58413e-05
1.54464e-05
2.55646e-05
1.96575e-05
1.35178e-05
2.22263e-05
1.74979e-05
7.51822e-06
2.27414e-05
4.45761e-06
2.26057e-05
5.17812e-06
2.12377e-05
9.25358e-06
1.71259e-05
2.1437e-05
1.49934e-05
2.48245e-05
2.07376e-05
1.65924e-05
2.51482e-05
7.55853e-06
2.63423e-05
1.81622e-05
5.24907e-06
2.41991e-05
1.66626e-05
-1.34981e-06
2.44487e-05
-3.81761e-06
2.41e-05
-2.7963e-06
2.14771e-05
1.70638e-06
1.17715e-05
2.09156e-05
7.24852e-06
2.45084e-05
1.77931e-05
8.7439e-06
2.62453e-05
1.02893e-05
2.74327e-05
1.75057e-05
8.03708e-06
2.4843e-05
1.574e-05
1.5697e-06
2.49209e-05
-1.37525e-06
2.46229e-05
-3.45745e-07
2.23976e-05
3.97787e-06
1.52451e-05
2.16344e-05
9.91404e-06
2.61066e-05
1.79276e-05
1.17274e-05
2.83939e-05
-6.79341e-06
3.40624e-05
1.43619e-05
-1.20962e-05
3.38723e-05
1.36652e-05
-1.99679e-05
3.21168e-05
-2.07052e-05
3.10458e-05
-1.90491e-05
2.67904e-05
-1.42403e-05
6.52705e-06
2.44349e-05
-6.91847e-06
3.08417e-05
1.2919e-05
-5.65847e-06
-0.0109055
-0.0105121
-0.0102056
-0.00999378
-0.00987696
-0.00986238
-0.00998051
-0.0102121
-0.0105516
-0.0109755
-0.0114621
-0.0119607
-0.0124081
-0.0127264
-0.0128626
-0.0128273
-0.0126297
-0.0122844
-0.011841
-0.0113625
0.00234707
0.0022996
0.00216571
0.00200214
0.00184711
0.00175646
0.00168815
0.00160435
0.00148388
0.00133117
0.00113031
0.000907809
0.000718358
0.000623403
0.000683828
0.000950322
0.00132838
0.00172283
0.00205635
0.00227147
-0.00232398
-0.00208505
-0.00189506
-0.00175522
-0.0017024
-0.00175567
-0.00188135
-0.0020288
-0.00224468
-0.00249901
-0.00282992
-0.00318223
-0.00348862
-0.00366426
-0.00370661
-0.00363656
-0.0034532
-0.00317838
-0.0028781
-0.00258808
0.00289599
0.00295965
0.00298551
0.00300518
0.00301211
0.00301425
0.00294929
0.00287331
0.0027085
0.00251711
0.00218921
0.00181792
0.00150577
0.00136967
0.00149414
0.00175246
0.00209069
0.00239571
0.00263064
0.00279521
-0.000455622
-0.000306737
-0.000232039
-0.000183077
-0.00021849
-0.000232016
-0.000291433
-0.000335956
-0.000489182
-0.000683325
-0.00110294
-0.00161191
-0.00204926
-0.00228976
-0.00232005
-0.00214095
-0.00178227
-0.0013708
-0.00098583
-0.000674046
0.00201154
0.00211336
0.00216448
0.00221109
0.0022086
0.00220008
0.00211879
0.00204912
0.00185553
0.00163369
0.00112258
0.000584512
0.000200993
0.000132367
0.00034133
0.000697698
0.00107717
0.00140742
0.00167371
0.00187509
5.98255e-05
0.000105113
0.000110053
0.000114968
9.35496e-05
0.000116463
8.68882e-05
8.02989e-05
-6.48819e-05
-0.000272263
-0.000871136
-0.0015099
-0.00192082
-0.00199047
-0.00170729
-0.00125833
-0.000799433
-0.000439752
-0.000184704
-2.42857e-05
0.00124638
0.00131753
0.00135022
0.00138409
0.00135999
0.00134654
0.00127002
0.00120458
0.00101839
0.000770607
0.000130356
-0.000456764
-0.000718798
-0.00055228
-0.000173019
0.000227591
0.000584871
0.000839547
0.00102667
0.00115719
0.000171266
0.000183014
0.000170839
0.000171883
0.000164313
0.000188331
0.000168152
0.000162968
4.07541e-05
-0.000178234
-0.000849436
-0.00147384
-0.00167957
-0.00142779
-0.000961041
-0.000557196
-0.000234072
-4.06029e-05
8.20721e-05
0.000145286
0.000737554
0.00077906
0.000794886
0.000809687
0.00078645
0.000770735
0.000710693
0.000655788
0.000513665
0.000289613
-0.000327684
-0.0008249
-0.000829598
-0.000537432
-0.000127443
0.000163146
0.000390664
0.000521463
0.000621234
0.000687634
0.000176731
0.000182356
0.000171928
0.00017707
0.000170986
0.000188568
0.00017342
0.000177374
9.71724e-05
-4.56102e-05
-0.000614983
-0.00113947
-0.00107755
-0.000780042
-0.000402614
-0.000173051
1.98873e-06
8.34036e-05
0.000141175
0.000165758
0.00043308
0.000455351
0.000460774
0.000465953
0.000445927
0.000432146
0.000388075
0.000352428
0.000262913
0.000138747
-0.000321334
-0.000609191
-0.000495671
-0.000231727
3.572e-05
0.000169736
0.000280559
0.000328443
0.000377023
0.000406512
0.000153901
0.000160076
0.000154829
0.000161447
0.000155855
0.00017061
0.000161108
0.000187975
0.000155006
0.000181433
-0.000195374
-0.000567455
-0.000481288
-0.000322717
-0.000115894
-2.56971e-05
6.46059e-05
9.64438e-05
0.000131132
0.000144144
0.000260003
0.000271759
0.000272037
0.000273502
0.000256343
0.000245518
0.00021246
0.000194322
0.000149083
0.000141667
-7.86726e-05
-0.000193963
-0.000121823
-7.97989e-06
0.000112188
0.000142815
0.000193552
0.000205562
0.000232308
0.000245067
0.000125722
0.000132643
0.000131142
0.000137535
0.000132801
0.000145733
0.00014133
0.000182998
0.000190856
0.000366116
0.000230917
-0.000143921
-0.000152899
-0.000139168
-4.85618e-05
-1.12812e-05
5.31262e-05
7.38884e-05
0.000103789
0.000114894
0.0001644
0.000170943
0.000169318
0.000169315
0.000154854
0.000145898
0.000118981
0.000107145
7.70478e-05
0.000145144
0.000253088
1.01308e-05
-2.20781e-05
-1.5222e-05
5.34863e-05
6.69438e-05
0.000113798
0.000124293
0.000146748
0.000154417
0.000100989
0.000107261
0.000107418
0.000112514
0.000108503
0.000117463
0.000113769
0.000139288
0.000129701
0.000186214
0.000109884
-6.00965e-05
-5.46759e-05
-7.66815e-05
-1.57853e-05
-5.43335e-06
4.13622e-05
5.56616e-05
8.11038e-05
9.05992e-05
0.000112751
0.000116277
0.000114249
0.000113687
0.00010205
9.44719e-05
7.35285e-05
6.11592e-05
4.04989e-05
4.32379e-05
7.59554e-05
5.30907e-06
2.92142e-05
2.10323e-05
6.06905e-05
5.73068e-05
8.56199e-05
8.7296e-05
0.000102502
0.000106111
8.22549e-05
8.68895e-05
8.73858e-05
9.08212e-05
8.72583e-05
9.24922e-05
8.97802e-05
0.000102368
9.57918e-05
0.000105975
6.36849e-05
-2.56688e-05
-1.78053e-05
-4.21611e-05
-8.63915e-07
2.33793e-06
3.68289e-05
4.62933e-05
6.63717e-05
7.34876e-05
8.44856e-05
8.62135e-05
8.44301e-05
8.36484e-05
7.46555e-05
6.85075e-05
5.29351e-05
4.14184e-05
2.63705e-05
1.67738e-05
3.11244e-05
8.96606e-06
3.91987e-05
3.01889e-05
5.81366e-05
5.04405e-05
6.91895e-05
6.76697e-05
7.8304e-05
7.9823e-05
6.92617e-05
7.19853e-05
7.23211e-05
7.42289e-05
7.07226e-05
7.32192e-05
7.0857e-05
7.57333e-05
7.25917e-05
6.94142e-05
4.85266e-05
-5.96889e-06
-1.88399e-07
-2.05208e-05
8.53842e-06
9.63959e-06
3.53642e-05
4.19525e-05
5.73849e-05
6.21976e-05
6.86e-05
6.90956e-05
6.78306e-05
6.69532e-05
6.01357e-05
5.54635e-05
4.42886e-05
3.4474e-05
2.46622e-05
1.3591e-05
2.23676e-05
1.36478e-05
4.00503e-05
3.19577e-05
5.26755e-05
4.53086e-05
5.85991e-05
5.66753e-05
6.45229e-05
6.50778e-05
6.0876e-05
6.17112e-05
6.195e-05
6.25595e-05
5.90698e-05
5.96941e-05
5.72543e-05
5.75619e-05
5.6989e-05
4.93719e-05
4.12045e-05
5.55484e-06
1.15455e-05
-3.92549e-06
1.723e-05
1.74504e-05
3.6217e-05
4.08898e-05
5.23608e-05
5.5261e-05
5.97025e-05
5.89288e-05
5.83327e-05
5.72538e-05
5.18416e-05
4.84351e-05
4.12937e-05
3.26076e-05
2.76288e-05
1.68828e-05
2.41566e-05
1.75826e-05
3.86724e-05
3.10164e-05
4.72591e-05
4.17879e-05
5.15362e-05
5.04494e-05
5.64842e-05
5.63752e-05
5.58072e-05
5.48232e-05
5.53178e-05
5.49766e-05
5.13206e-05
5.09859e-05
4.84718e-05
4.57525e-05
4.71043e-05
3.79917e-05
3.71666e-05
1.3016e-05
2.0603e-05
8.93948e-06
2.48605e-05
2.48505e-05
3.79274e-05
4.15118e-05
4.98167e-05
5.10555e-05
5.47033e-05
5.25875e-05
5.28084e-05
5.12936e-05
4.67767e-05
4.47864e-05
3.98577e-05
3.21942e-05
3.17093e-05
2.03222e-05
2.85512e-05
2.0009e-05
3.73228e-05
3.01321e-05
4.29193e-05
3.97361e-05
4.69184e-05
4.7121e-05
5.16722e-05
5.10546e-05
5.26757e-05
5.03749e-05
5.15225e-05
5.00041e-05
4.65683e-05
4.58469e-05
4.37024e-05
3.84895e-05
4.16305e-05
3.15072e-05
3.58984e-05
1.82258e-05
2.76572e-05
1.77959e-05
3.07618e-05
3.07768e-05
3.9667e-05
4.28906e-05
4.83514e-05
4.86466e-05
5.20866e-05
4.79692e-05
4.9694e-05
4.76684e-05
4.32946e-05
4.24092e-05
3.90665e-05
3.15589e-05
3.47846e-05
2.26151e-05
3.23763e-05
2.16757e-05
3.69868e-05
2.95047e-05
4.03905e-05
3.9116e-05
4.36336e-05
4.56151e-05
4.89411e-05
4.75759e-05
5.16026e-05
4.71564e-05
4.96168e-05
4.6867e-05
4.30538e-05
4.36744e-05
4.09118e-05
3.40807e-05
4.03248e-05
2.73985e-05
3.69841e-05
2.07397e-05
3.29163e-05
2.38634e-05
3.4467e-05
3.5582e-05
4.06666e-05
4.44812e-05
4.7454e-05
4.65767e-05
5.02398e-05
4.46017e-05
4.82157e-05
4.48716e-05
4.08393e-05
4.11895e-05
3.87957e-05
2.97622e-05
3.71713e-05
2.29335e-05
3.56224e-05
2.21695e-05
3.7836e-05
2.85808e-05
3.88486e-05
3.9053e-05
4.1488e-05
4.53193e-05
4.67327e-05
4.52531e-05
5.15485e-05
4.36507e-05
4.90373e-05
4.55673e-05
4.02123e-05
4.2348e-05
3.97469e-05
3.09671e-05
4.07414e-05
2.4728e-05
3.89637e-05
2.18823e-05
3.68884e-05
2.69195e-05
3.71864e-05
3.92153e-05
4.0008e-05
4.60946e-05
4.74609e-05
4.46377e-05
4.97877e-05
4.10814e-05
4.76609e-05
4.30387e-05
3.77682e-05
4.12525e-05
3.82948e-05
2.72502e-05
3.98347e-05
2.08223e-05
3.89902e-05
2.06583e-05
3.88755e-05
2.74239e-05
3.73899e-05
3.98685e-05
3.91038e-05
4.56263e-05
4.50736e-05
4.22766e-05
5.1642e-05
4.08524e-05
4.9502e-05
4.38328e-05
3.75443e-05
4.27003e-05
3.90372e-05
2.73552e-05
4.24718e-05
2.16895e-05
4.17782e-05
2.11105e-05
4.04697e-05
2.74282e-05
3.81665e-05
4.1631e-05
3.90952e-05
4.78128e-05
4.6398e-05
4.25654e-05
5.04486e-05
3.61216e-05
4.81396e-05
4.20581e-05
3.29797e-05
4.24157e-05
3.76799e-05
2.29999e-05
4.2397e-05
1.69069e-05
4.20726e-05
1.7479e-05
4.05344e-05
2.47325e-05
3.56216e-05
4.14158e-05
3.5127e-05
4.64217e-05
4.38515e-05
3.77832e-05
5.21697e-05
3.67256e-05
5.09108e-05
4.23061e-05
3.37334e-05
4.44151e-05
3.81526e-05
2.24294e-05
4.57193e-05
1.66543e-05
4.56772e-05
1.74554e-05
4.37135e-05
2.52074e-05
3.79951e-05
4.34832e-05
3.62129e-05
4.97968e-05
4.48953e-05
3.93212e-05
5.1083e-05
2.97746e-05
5.02443e-05
3.99005e-05
2.64728e-05
4.51079e-05
3.65987e-05
1.56264e-05
4.60862e-05
9.72334e-06
4.60411e-05
1.11009e-05
4.29256e-05
1.92489e-05
3.31067e-05
4.24915e-05
2.95997e-05
4.82553e-05
4.1051e-05
3.18953e-05
5.37102e-05
3.03682e-05
5.35111e-05
4.02229e-05
2.67901e-05
4.76854e-05
3.66216e-05
1.53185e-05
4.95159e-05
9.33356e-06
4.97028e-05
1.10266e-05
4.65708e-05
1.94376e-05
3.65024e-05
4.55706e-05
3.05776e-05
5.21849e-05
4.23332e-05
3.32195e-05
5.31069e-05
1.79334e-05
5.54772e-05
3.7595e-05
1.37235e-05
5.1526e-05
3.50104e-05
1.21153e-06
5.29159e-05
-3.97919e-06
5.27493e-05
-1.74497e-06
4.75462e-05
7.36978e-06
2.86432e-05
4.51627e-05
1.84092e-05
5.24184e-05
3.75062e-05
2.09906e-05
5.51562e-05
1.95812e-05
5.81789e-05
3.60435e-05
1.51986e-05
5.39121e-05
3.32061e-05
2.614e-06
5.4901e-05
-3.16842e-06
5.47383e-05
-7.73566e-07
4.97526e-05
8.2503e-06
3.2779e-05
4.67382e-05
2.00632e-05
5.56174e-05
3.6877e-05
2.31274e-05
5.85306e-05
-4.97813e-06
6.85686e-05
3.10062e-05
-1.36381e-05
6.79838e-05
2.97787e-05
-2.8308e-05
6.61384e-05
-3.11374e-05
6.47941e-05
-2.77872e-05
5.65976e-05
-1.80766e-05
2.05703e-05
5.1063e-05
-4.07995e-06
6.30289e-05
2.89823e-05
-1.63218e-06
-0.0134211
-0.0128701
-0.0124194
-0.012091
-0.0118983
-0.01187
-0.012023
-0.0123359
-0.012798
-0.0133741
-0.0140285
-0.0146933
-0.015287
-0.0157152
-0.0159119
-0.0158846
-0.0156464
-0.0152174
-0.0146557
-0.0140344
0.00197071
0.00202598
0.00195669
0.00181986
0.00166091
0.00154449
0.00140872
0.00123485
0.00100125
0.000717373
0.000371612
4.28403e-06
-0.00030872
-0.000483349
-0.000439855
-0.000127707
0.000353149
0.000890612
0.00138545
0.0017587
-0.00272148
-0.00241018
-0.00218954
-0.00205057
-0.00203314
-0.00213779
-0.00233246
-0.00256977
-0.00290244
-0.00329877
-0.0037992
-0.00432423
-0.00477143
-0.0050163
-0.00504988
-0.00487167
-0.00451294
-0.00403781
-0.00354787
-0.00310064
0.00337132
0.00344865
0.00346866
0.00347373
0.00345333
0.00341183
0.00328821
0.00313514
0.00285852
0.002523
0.00200669
0.00145013
0.00101733
0.00087693
0.00112563
0.00157174
0.00211987
0.00260887
0.00297951
0.0032288
-0.000279488
-0.000119235
-4.63253e-05
-7.7998e-06
-6.62689e-05
-0.000104658
-0.000212062
-0.000322821
-0.000587507
-0.000937093
-0.00157785
-0.00229495
-0.0028321
-0.00304518
-0.00291791
-0.00252239
-0.00195651
-0.00138547
-0.000896919
-0.000526323
0.00246382
0.00258342
0.0026401
0.00268777
0.00266639
0.00263494
0.00250548
0.00237078
0.00206182
0.00167503
0.000918624
0.000183228
-0.000253769
-0.000202992
0.000198706
0.000752448
0.00128794
0.00172352
0.00205691
0.00230091
0.000289319
0.00034875
0.000356693
0.000359845
0.000329044
0.0003384
0.000271532
0.000211687
-4.25562e-05
-0.000417964
-0.00128489
-0.00211582
-0.00254483
-0.00246348
-0.00197566
-0.00134924
-0.000762064
-0.000320826
-1.23336e-05
0.000183369
0.00157306
0.00166308
0.00170293
0.00173929
0.00170269
0.00167331
0.00155797
0.00143874
0.00114535
0.000728346
-0.000182832
-0.000931735
-0.00115122
-0.000824715
-0.000256772
0.000281105
0.000736526
0.00105584
0.00129153
0.00145813
0.000366511
0.000390387
0.000380463
0.000383787
0.000368037
0.000383435
0.000333971
0.000286866
7.07984e-05
-0.000308478
-0.00125047
-0.0020191
-0.0021479
-0.0017276
-0.0010919
-0.00057619
-0.000172834
7.17195e-05
0.000233055
0.000323027
0.000959427
0.00101411
0.00103385
0.00104982
0.00101708
0.000990515
0.000901417
0.000806684
0.000579926
0.000209061
-0.000661158
-0.00126104
-0.00116452
-0.000719375
-0.000172352
0.000202165
0.000493911
0.000666117
0.000800319
0.000891534
0.000325535
0.00033979
0.000330537
0.000337848
0.000325099
0.000337338
0.000301219
0.000278328
0.000130676
-0.000133208
-0.000934262
-0.00154301
-0.00136818
-0.000942019
-0.000452908
-0.000161112
6.47712e-05
0.000176566
0.000260547
0.00030246
0.000581522
0.000612104
0.0006191
0.000625067
0.00059746
0.000576801
0.000512876
0.000453447
0.000308994
8.64468e-05
-0.000568653
-0.000895167
-0.000678794
-0.000313447
3.6008e-05
0.000210943
0.000359861
0.000429517
0.000499688
0.000543695
0.000262775
0.000275133
0.000270606
0.000279057
0.000268234
0.00028066
0.000257992
0.000274692
0.000204268
0.000171992
-0.000367764
-0.000781452
-0.000610202
-0.000385299
-0.000116761
-1.44886e-07
0.00012074
0.000168431
0.000220657
0.000244471
0.000360689
0.000377831
0.00037859
0.000380755
0.000357563
0.000342769
0.000296727
0.000268331
0.000195344
0.000145882
-0.000187033
-0.000316288
-0.000179875
-2.32203e-05
0.000137215
0.000180941
0.000253926
0.000276176
0.000317078
0.000338334
0.000204928
0.000216445
0.000215469
0.000223421
0.000214604
0.000227124
0.000215022
0.000257743
0.00025205
0.000423895
0.000207797
-0.000224234
-0.000191267
-0.000160867
-3.7078e-05
9.66878e-06
9.57443e-05
0.000125885
0.000169113
0.000187573
0.000235232
0.00024546
0.000243893
0.000244485
0.000225125
0.000213734
0.000177588
0.000162132
0.00011844
0.00018762
0.000274498
-2.83753e-05
-3.99156e-05
-2.5267e-05
6.99617e-05
9.02606e-05
0.000155693
0.00017297
0.000206517
0.000219831
0.000159929
0.000169554
0.000170041
0.000176328
0.000168981
0.000177886
0.000168788
0.000196135
0.000177951
0.000239193
0.00013346
-8.68704e-05
-6.87208e-05
-9.25383e-05
-7.79227e-06
7.47962e-06
7.23559e-05
9.33844e-05
0.000129656
0.000144437
0.000165392
0.000171406
0.000169251
0.000169113
0.000153481
0.000144105
0.000116184
0.000101135
7.16894e-05
7.34597e-05
9.79347e-05
-4.89708e-06
3.06124e-05
1.94082e-05
7.73611e-05
7.571e-05
0.000118033
0.00012366
0.000147372
0.000154718
0.000128106
0.000134992
0.0001356
0.000139801
0.000133416
0.000138406
0.000131615
0.000144546
0.000132365
0.000141596
8.56085e-05
-3.39249e-05
-1.8049e-05
-4.84872e-05
9.58927e-06
1.45751e-05
6.27083e-05
7.63764e-05
0.000104766
0.000115466
0.000126135
0.000129407
0.000127406
0.000126833
0.000114591
0.000106986
8.61505e-05
7.19275e-05
5.08228e-05
3.75428e-05
4.79934e-05
9.28036e-06
4.93067e-05
3.52571e-05
7.63698e-05
6.80254e-05
9.69978e-05
9.75502e-05
0.000114558
0.000118459
0.000106948
0.000110964
0.000111247
0.000113511
0.000107531
0.000109554
0.000103977
0.000108004
0.000101299
9.46777e-05
6.73639e-05
-5.39835e-06
6.82672e-06
-1.95292e-05
2.18275e-05
2.31895e-05
5.90442e-05
6.82007e-05
8.98682e-05
9.69676e-05
0.000103645
0.000104886
0.000103399
0.000102499
9.30064e-05
8.71469e-05
7.20576e-05
5.95706e-05
4.5941e-05
3.03998e-05
3.78933e-05
1.94442e-05
5.41193e-05
4.11612e-05
7.17124e-05
6.30512e-05
8.39141e-05
8.31671e-05
9.58075e-05
9.78186e-05
9.36334e-05
9.49062e-05
9.50513e-05
9.56422e-05
8.99279e-05
8.99463e-05
8.49195e-05
8.36199e-05
8.10808e-05
6.92909e-05
5.8805e-05
1.13713e-05
2.30905e-05
2.54295e-06
3.2988e-05
3.29008e-05
5.91061e-05
6.5437e-05
8.15196e-05
8.57536e-05
9.08756e-05
9.0091e-05
8.93819e-05
8.80207e-05
8.03045e-05
7.59672e-05
6.60047e-05
5.46507e-05
4.7773e-05
3.24546e-05
4.02705e-05
2.67595e-05
5.48483e-05
4.28742e-05
6.67828e-05
6.01645e-05
7.55349e-05
7.53338e-05
8.49644e-05
8.56254e-05
8.57046e-05
8.43544e-05
8.48919e-05
8.41845e-05
7.84503e-05
7.75453e-05
7.2934e-05
6.80661e-05
6.88364e-05
5.52823e-05
5.47621e-05
2.2297e-05
3.53859e-05
1.94858e-05
4.264e-05
4.22661e-05
6.06708e-05
6.55292e-05
7.71775e-05
7.90243e-05
8.36856e-05
8.08015e-05
8.11816e-05
7.90639e-05
7.24596e-05
6.9872e-05
6.28248e-05
5.2417e-05
5.17449e-05
3.55717e-05
4.59113e-05
3.13689e-05
5.49728e-05
4.39194e-05
6.28968e-05
5.90248e-05
7.02846e-05
7.14488e-05
7.86058e-05
7.82236e-05
8.09833e-05
7.75341e-05
7.90928e-05
7.67966e-05
7.13748e-05
7.02977e-05
6.64455e-05
5.85557e-05
6.24708e-05
4.7497e-05
5.42435e-05
2.98372e-05
4.49062e-05
3.11886e-05
5.00812e-05
4.99434e-05
6.24826e-05
6.70081e-05
7.4738e-05
7.51048e-05
7.9938e-05
7.41462e-05
7.65912e-05
7.35725e-05
6.71279e-05
6.60906e-05
6.10624e-05
5.05005e-05
5.51732e-05
3.76741e-05
5.11003e-05
3.44226e-05
5.59568e-05
4.46892e-05
6.08762e-05
5.94644e-05
6.66441e-05
6.99877e-05
7.50411e-05
7.34146e-05
7.91939e-05
7.2613e-05
7.61786e-05
7.21561e-05
6.62494e-05
6.70997e-05
6.27545e-05
5.26482e-05
6.13091e-05
4.25533e-05
5.65362e-05
3.36479e-05
5.20997e-05
3.91106e-05
5.48278e-05
5.62622e-05
6.34722e-05
6.90219e-05
7.32857e-05
7.1954e-05
7.75453e-05
6.91867e-05
7.44424e-05
6.95525e-05
6.32946e-05
6.4205e-05
6.02935e-05
4.74955e-05
5.8229e-05
3.75021e-05
5.57502e-05
3.55386e-05
5.80949e-05
4.45652e-05
5.97485e-05
6.0418e-05
6.41522e-05
7.00695e-05
7.22794e-05
7.0078e-05
7.89367e-05
6.75412e-05
7.52583e-05
6.99679e-05
6.20602e-05
6.53682e-05
6.11631e-05
4.82199e-05
6.24124e-05
3.90065e-05
5.992e-05
3.52239e-05
5.76513e-05
4.30334e-05
5.82094e-05
6.11566e-05
6.24387e-05
7.12196e-05
7.29691e-05
6.90144e-05
7.69994e-05
6.40818e-05
7.37576e-05
6.68819e-05
5.88071e-05
6.42129e-05
5.94658e-05
4.35868e-05
6.18798e-05
3.43084e-05
6.06227e-05
3.37603e-05
6.03245e-05
4.35353e-05
5.84235e-05
6.21951e-05
6.11068e-05
7.09127e-05
7.0136e-05
6.59291e-05
7.91104e-05
6.31309e-05
7.58938e-05
6.74787e-05
5.79002e-05
6.59483e-05
6.01516e-05
4.29518e-05
6.52196e-05
3.4573e-05
6.43004e-05
3.39053e-05
6.26468e-05
4.34278e-05
5.93389e-05
6.45907e-05
6.07561e-05
7.36378e-05
7.14157e-05
6.57023e-05
7.78737e-05
5.71298e-05
7.45913e-05
6.52281e-05
5.2127e-05
6.58971e-05
5.85194e-05
3.73306e-05
6.56915e-05
2.85366e-05
6.53018e-05
2.93374e-05
6.31761e-05
4.00155e-05
5.63844e-05
6.46307e-05
5.5816e-05
7.23739e-05
6.83076e-05
5.97654e-05
7.9926e-05
5.68415e-05
7.79653e-05
6.51934e-05
5.20002e-05
6.85009e-05
5.88627e-05
3.56124e-05
6.99632e-05
2.71932e-05
6.99931e-05
2.84851e-05
6.72302e-05
3.99195e-05
5.88248e-05
6.72934e-05
5.63102e-05
7.64791e-05
6.91414e-05
6.06337e-05
7.88645e-05
4.80971e-05
7.76498e-05
6.21741e-05
4.29064e-05
6.97989e-05
5.6928e-05
2.68799e-05
7.10598e-05
1.83255e-05
7.11329e-05
2.04057e-05
6.68286e-05
3.24067e-05
5.30963e-05
6.64375e-05
4.80882e-05
7.51316e-05
6.4416e-05
5.14684e-05
8.20066e-05
4.73768e-05
8.18491e-05
6.21039e-05
4.17869e-05
7.3386e-05
5.66497e-05
2.48901e-05
7.56649e-05
1.62867e-05
7.60364e-05
1.88907e-05
7.145e-05
3.13505e-05
5.64132e-05
7.02238e-05
4.79665e-05
8.00005e-05
6.53125e-05
5.16708e-05
8.15239e-05
3.22466e-05
8.47141e-05
5.87268e-05
2.58775e-05
7.85378e-05
5.45415e-05
7.65984e-06
8.02858e-05
-4.41505e-08
8.02333e-05
3.27485e-06
7.30272e-05
1.65925e-05
4.71846e-05
6.99935e-05
3.32189e-05
8.07354e-05
5.92748e-05
3.68688e-05
8.40994e-05
3.23161e-05
8.85746e-05
5.64253e-05
2.5529e-05
8.22861e-05
5.20747e-05
7.0209e-06
8.34708e-05
-1.24055e-06
8.3392e-05
2.38308e-06
7.61254e-05
1.57212e-05
5.10989e-05
7.21554e-05
3.33865e-05
8.4976e-05
5.7848e-05
3.75621e-05
8.78458e-05
4.4786e-06
0.000100749
5.04417e-05
-7.0822e-06
9.88018e-05
4.80445e-05
-2.79637e-05
9.66444e-05
-3.29585e-05
9.51905e-05
-2.82302e-05
8.4017e-05
-1.41683e-05
3.71547e-05
7.70762e-05
6.06238e-06
9.35126e-05
4.83987e-05
9.62505e-06
-0.0148233
-0.0141959
-0.0136803
-0.0133041
-0.0130892
-0.0130715
-0.0132588
-0.013629
-0.0141685
-0.0148347
-0.0155838
-0.016337
-0.0170018
-0.0174743
-0.0176841
-0.0176393
-0.0173562
-0.0168622
-0.016223
-0.0155189
0.00146364
0.00157087
0.00153857
0.00142274
0.00127353
0.00114889
0.000972768
0.000741253
0.000431872
6.03347e-05
-0.000379437
-0.000835152
-0.00121617
-0.00142606
-0.00137462
-0.0010191
-0.000469821
0.000151125
0.000732044
0.00118479
-0.0030697
-0.00270996
-0.00246629
-0.0023241
-0.00233113
-0.00246943
-0.00271193
-0.00301416