/*--------------------------------*- C++ -*----------------------------------*\
| =========                 |                                                 |
| \\      /  F ield         | OpenFOAM: The Open Source CFD Toolbox           |
|  \\    /   O peration     | Version:  2.4.0                                 |
|   \\  /    A nd           | Web:      www.OpenFOAM.org                      |
|    \\/     M anipulation  |                                                 |
\*---------------------------------------------------------------------------*/
FoamFile
{
    version     2.0;
    format      ascii;
    class       volScalarField;
    location    "410";
    object      k;
}
// * * * * * * * * * * * * * * * * * * * * * * * * * * * * * * * * * * * * * //

dimensions      [0 2 -2 0 0 0 0];

internalField   nonuniform List<scalar> 
283312
(
2.57056e-05
2.22729e-05
2.06167e-05
2.10405e-05
2.33462e-05
2.69837e-05
3.1217e-05
3.53935e-05
3.91194e-05
4.22027e-05
4.45548e-05
4.61221e-05
4.68681e-05
4.67999e-05
4.59682e-05
4.44008e-05
4.20696e-05
3.89037e-05
3.49016e-05
3.03339e-05
2.24167e-05
2.56204e-05
3.04101e-05
3.56041e-05
4.0184e-05
4.36333e-05
4.59644e-05
4.74291e-05
4.82641e-05
4.86842e-05
4.88456e-05
4.86562e-05
4.7789e-05
4.59397e-05
4.29569e-05
3.87376e-05
3.35521e-05
2.82745e-05
2.41072e-05
2.20885e-05
3.22589e-05
3.70421e-05
4.08624e-05
4.35381e-05
4.52209e-05
4.61463e-05
4.65883e-05
4.67834e-05
4.68154e-05
4.73027e-05
4.86729e-05
4.97813e-05
4.86856e-05
4.44718e-05
3.78638e-05
3.07105e-05
2.51685e-05
2.27655e-05
2.384e-05
2.75563e-05
3.89597e-05
4.16931e-05
4.33781e-05
4.42655e-05
4.46621e-05
4.48312e-05
4.49495e-05
4.50788e-05
4.51666e-05
4.79917e-05
5.44704e-05
5.99923e-05
5.91826e-05
5.11932e-05
4.04584e-05
3.16641e-05
2.74206e-05
2.77873e-05
3.1088e-05
3.52961e-05
4.20886e-05
4.31503e-05
4.36603e-05
4.38734e-05
4.39763e-05
4.40534e-05
4.41578e-05
4.43049e-05
4.48731e-05
5.2963e-05
6.776e-05
7.93668e-05
8.06111e-05
7.14917e-05
5.61412e-05
4.29159e-05
3.65108e-05
3.58923e-05
3.79399e-05
4.03432e-05
4.2866e-05
4.32284e-05
4.33624e-05
4.3405e-05
4.34412e-05
4.34984e-05
4.36037e-05
4.37638e-05
4.47829e-05
5.50133e-05
7.00273e-05
7.89466e-05
7.54079e-05
6.20685e-05
4.81195e-05
3.99408e-05
3.77897e-05
3.88757e-05
4.0696e-05
4.20952e-05
4.28568e-05
4.30054e-05
4.30606e-05
4.30943e-05
4.31425e-05
4.32062e-05
4.33072e-05
4.34579e-05
4.44337e-05
4.98526e-05
5.64125e-05
6.18242e-05
6.10825e-05
5.13654e-05
4.21428e-05
3.83347e-05
3.86169e-05
4.02447e-05
4.16611e-05
4.24886e-05
4.27888e-05
4.28657e-05
4.28941e-05
4.29139e-05
4.29469e-05
4.29979e-05
4.30809e-05
4.32086e-05
4.34149e-05
3.92986e-05
3.26621e-05
2.76621e-05
2.7228e-05
3.00197e-05
3.27185e-05
3.57068e-05
3.86348e-05
4.07818e-05
4.20063e-05
4.25734e-05
4.2731e-05
4.27675e-05
4.27854e-05
4.28059e-05
4.28366e-05
4.28822e-05
4.29485e-05
4.30611e-05
4.32223e-05
3.82925e-05
3.10885e-05
2.48166e-05
2.27697e-05
2.58185e-05
3.10795e-05
3.60124e-05
3.94595e-05
4.13836e-05
4.22718e-05
4.26171e-05
4.26962e-05
4.27134e-05
4.27235e-05
4.27372e-05
4.27586e-05
4.27938e-05
4.28446e-05
4.29406e-05
4.30675e-05
3.74156e-05
3.01096e-05
2.3998e-05
2.24344e-05
2.63199e-05
3.23594e-05
3.73763e-05
4.04027e-05
4.18584e-05
4.2441e-05
4.26385e-05
4.26637e-05
4.26747e-05
4.26834e-05
4.26959e-05
4.27134e-05
4.27411e-05
4.2779e-05
4.28564e-05
4.29468e-05
3.66787e-05
2.93493e-05
2.34898e-05
2.29769e-05
2.78551e-05
3.40383e-05
3.85786e-05
4.10403e-05
4.21147e-05
4.25074e-05
4.26298e-05
4.26439e-05
4.26521e-05
4.26585e-05
4.26676e-05
4.26801e-05
4.27006e-05
4.27298e-05
4.27904e-05
4.28675e-05
3.61213e-05
2.91268e-05
2.40269e-05
2.43298e-05
2.95167e-05
3.53525e-05
3.93407e-05
4.13838e-05
4.22331e-05
4.25302e-05
4.26196e-05
4.26293e-05
4.26367e-05
4.26424e-05
4.26499e-05
4.26597e-05
4.26745e-05
4.2696e-05
4.27391e-05
4.27977e-05
3.58628e-05
2.83902e-05
2.29879e-05
2.41282e-05
2.99401e-05
3.58093e-05
3.96145e-05
4.15003e-05
4.22658e-05
4.25292e-05
4.26077e-05
4.26199e-05
4.26266e-05
4.26311e-05
4.26368e-05
4.2644e-05
4.26545e-05
4.26703e-05
4.27002e-05
4.2775e-05
3.59751e-05
2.92791e-05
2.43512e-05
2.53349e-05
3.07061e-05
3.61917e-05
3.97741e-05
4.15552e-05
4.22778e-05
4.25258e-05
4.25997e-05
4.26141e-05
4.26197e-05
4.26234e-05
4.26278e-05
4.26335e-05
4.2641e-05
4.26526e-05
4.26725e-05
4.27369e-05
3.55457e-05
2.77189e-05
2.32084e-05
2.53824e-05
3.12161e-05
3.6626e-05
4.00141e-05
4.16569e-05
4.23109e-05
4.25318e-05
4.25967e-05
4.2611e-05
4.26145e-05
4.26172e-05
4.26206e-05
4.26248e-05
4.26302e-05
4.26365e-05
4.26457e-05
4.26495e-05
3.57721e-05
2.61602e-05
2.27356e-05
2.62813e-05
3.25441e-05
3.77004e-05
4.06258e-05
4.19261e-05
4.24063e-05
4.25583e-05
4.26003e-05
4.261e-05
4.26108e-05
4.26124e-05
4.2615e-05
4.26184e-05
4.26228e-05
4.26277e-05
4.26341e-05
4.26366e-05
4.18944e-05
4.14384e-05
4.16235e-05
4.20154e-05
4.2282e-05
4.24e-05
4.25026e-05
4.25695e-05
4.2599e-05
4.2608e-05
4.26097e-05
4.26066e-05
4.26069e-05
4.26081e-05
4.26101e-05
4.26128e-05
4.26162e-05
4.26199e-05
4.26246e-05
4.26296e-05
4.26132e-05
4.26028e-05
4.26073e-05
4.26177e-05
4.26227e-05
4.26213e-05
4.2618e-05
4.26147e-05
4.26115e-05
4.26089e-05
4.26072e-05
4.26034e-05
4.26035e-05
4.26043e-05
4.2606e-05
4.26081e-05
4.2611e-05
4.26139e-05
4.26172e-05
4.26197e-05
4.26215e-05
4.26204e-05
4.26202e-05
4.26219e-05
4.26216e-05
4.26195e-05
4.2616e-05
4.26122e-05
4.26087e-05
4.2606e-05
4.26043e-05
4.26004e-05
4.26003e-05
4.26009e-05
4.26022e-05
4.2604e-05
4.26063e-05
4.26088e-05
4.26117e-05
4.26142e-05
4.26159e-05
4.26155e-05
4.26149e-05
4.26154e-05
4.26151e-05
4.26137e-05
4.2611e-05
4.2608e-05
4.26051e-05
4.26028e-05
4.26012e-05
4.25977e-05
4.25974e-05
4.25978e-05
4.25988e-05
4.26002e-05
4.26022e-05
4.26043e-05
4.26066e-05
4.26084e-05
4.261e-05
4.26102e-05
4.26103e-05
4.2611e-05
4.26107e-05
4.26095e-05
4.26072e-05
4.26047e-05
4.26022e-05
4.26001e-05
4.25986e-05
4.25951e-05
4.25948e-05
4.2595e-05
4.25957e-05
4.25969e-05
4.25986e-05
4.26004e-05
4.26025e-05
4.26042e-05
4.26058e-05
4.26061e-05
4.26062e-05
4.26065e-05
4.26062e-05
4.26052e-05
4.26034e-05
4.26013e-05
4.25991e-05
4.25973e-05
4.25959e-05
4.25927e-05
4.25923e-05
4.25924e-05
4.25929e-05
4.25939e-05
4.25953e-05
4.25968e-05
4.25986e-05
4.26001e-05
4.26014e-05
4.2602e-05
4.26024e-05
4.26029e-05
4.26027e-05
4.26018e-05
4.26003e-05
4.25984e-05
4.25965e-05
4.25949e-05
4.25936e-05
4.25904e-05
4.259e-05
4.259e-05
4.25904e-05
4.25912e-05
4.25923e-05
4.25937e-05
4.25953e-05
4.25967e-05
4.2598e-05
4.25986e-05
4.2599e-05
4.25993e-05
4.25991e-05
4.25984e-05
4.25972e-05
4.25956e-05
4.2594e-05
4.25925e-05
4.25913e-05
4.25884e-05
4.25879e-05
4.25878e-05
4.25881e-05
4.25887e-05
4.25897e-05
4.25908e-05
4.25922e-05
4.25934e-05
4.25947e-05
4.25954e-05
4.25959e-05
4.25963e-05
4.25962e-05
4.25956e-05
4.25945e-05
4.25931e-05
4.25917e-05
4.25903e-05
4.25892e-05
4.25864e-05
4.2586e-05
4.25858e-05
4.2586e-05
4.25865e-05
4.25873e-05
4.25883e-05
4.25896e-05
4.25907e-05
4.25918e-05
4.25925e-05
4.25931e-05
4.25934e-05
4.25933e-05
4.25929e-05
4.2592e-05
4.25908e-05
4.25895e-05
4.25883e-05
4.25872e-05
4.25847e-05
4.25842e-05
4.2584e-05
4.25841e-05
4.25845e-05
4.25852e-05
4.2586e-05
4.25871e-05
4.25882e-05
4.25892e-05
4.25899e-05
4.25905e-05
4.25909e-05
4.25909e-05
4.25905e-05
4.25897e-05
4.25887e-05
4.25876e-05
4.25865e-05
4.25855e-05
4.25831e-05
4.25826e-05
4.25823e-05
4.25824e-05
4.25827e-05
4.25833e-05
4.2584e-05
4.2585e-05
4.25859e-05
4.25869e-05
4.25876e-05
4.25882e-05
4.25886e-05
4.25886e-05
4.25883e-05
4.25877e-05
4.25868e-05
4.25858e-05
4.25848e-05
4.25838e-05
4.25816e-05
4.25811e-05
4.25809e-05
4.25808e-05
4.25811e-05
4.25816e-05
4.25822e-05
4.25831e-05
4.2584e-05
4.25849e-05
4.25856e-05
4.25862e-05
4.25865e-05
4.25866e-05
4.25864e-05
4.25858e-05
4.25851e-05
4.25842e-05
4.25832e-05
4.25824e-05
4.25804e-05
4.25798e-05
4.25795e-05
4.25795e-05
4.25796e-05
4.25801e-05
4.25806e-05
4.25814e-05
4.25822e-05
4.25831e-05
4.25838e-05
4.25843e-05
4.25847e-05
4.25848e-05
4.25847e-05
4.25842e-05
4.25835e-05
4.25827e-05
4.25818e-05
4.2581e-05
4.25792e-05
4.25787e-05
4.25784e-05
4.25782e-05
4.25784e-05
4.25787e-05
4.25792e-05
4.258e-05
4.25807e-05
4.25815e-05
4.25821e-05
4.25827e-05
4.25831e-05
4.25832e-05
4.25831e-05
4.25827e-05
4.25821e-05
4.25814e-05
4.25806e-05
4.25798e-05
4.25782e-05
4.25777e-05
4.25773e-05
4.25772e-05
4.25773e-05
4.25776e-05
4.2578e-05
4.25787e-05
4.25794e-05
4.25801e-05
4.25808e-05
4.25813e-05
4.25817e-05
4.25819e-05
4.25818e-05
4.25814e-05
4.25809e-05
4.25802e-05
4.25795e-05
4.25788e-05
4.25773e-05
4.25768e-05
4.25764e-05
4.25763e-05
4.25763e-05
4.25765e-05
4.25769e-05
4.25775e-05
4.25782e-05
4.25789e-05
4.25795e-05
4.25801e-05
4.25805e-05
4.25806e-05
4.25806e-05
4.25803e-05
4.25798e-05
4.25792e-05
4.25785e-05
4.25779e-05
4.25765e-05
4.2576e-05
4.25757e-05
4.25755e-05
4.25755e-05
4.25757e-05
4.2576e-05
4.25766e-05
4.25772e-05
4.25779e-05
4.25785e-05
4.2579e-05
4.25794e-05
4.25796e-05
4.25796e-05
4.25794e-05
4.25789e-05
4.25784e-05
4.25777e-05
4.25771e-05
4.25758e-05
4.25754e-05
4.2575e-05
4.25748e-05
4.25748e-05
4.2575e-05
4.25753e-05
4.25758e-05
4.25764e-05
4.2577e-05
4.25776e-05
4.25781e-05
4.25785e-05
4.25787e-05
4.25788e-05
4.25785e-05
4.25781e-05
4.25776e-05
4.2577e-05
4.25764e-05
4.25753e-05
4.25749e-05
4.25745e-05
4.25743e-05
4.25742e-05
4.25744e-05
4.25746e-05
4.25751e-05
4.25757e-05
4.25763e-05
4.25769e-05
4.25774e-05
4.25778e-05
4.25781e-05
4.25781e-05
4.25779e-05
4.25776e-05
4.25771e-05
4.25765e-05
4.25759e-05
4.25749e-05
4.25744e-05
4.2574e-05
4.25738e-05
4.25737e-05
4.25739e-05
4.25741e-05
4.25746e-05
4.25751e-05
4.25757e-05
4.25763e-05
4.25768e-05
4.25772e-05
4.25774e-05
4.25775e-05
4.25773e-05
4.2577e-05
4.25765e-05
4.2576e-05
4.25754e-05
4.25746e-05
4.25742e-05
4.25738e-05
4.25735e-05
4.25734e-05
4.25736e-05
4.25738e-05
4.25742e-05
4.25747e-05
4.25754e-05
4.25759e-05
4.25764e-05
4.25768e-05
4.25771e-05
4.25772e-05
4.2577e-05
4.25767e-05
4.25762e-05
4.25757e-05
4.25752e-05
4.25745e-05
4.2574e-05
4.25736e-05
4.25734e-05
4.25733e-05
4.25734e-05
4.25736e-05
4.25741e-05
4.25746e-05
4.25752e-05
4.25757e-05
4.25762e-05
4.25766e-05
4.25769e-05
4.2577e-05
4.25768e-05
4.25765e-05
4.25761e-05
4.25755e-05
4.2575e-05
4.26042e-05
4.26091e-05
4.26028e-05
4.26015e-05
4.26089e-05
4.26032e-05
4.26021e-05
4.26118e-05
4.26051e-05
4.26144e-05
4.26065e-05
4.26163e-05
4.26076e-05
4.26169e-05
4.26191e-05
4.26076e-05
4.26146e-05
4.26061e-05
4.2604e-05
4.26111e-05
2.51592e-05
2.19644e-05
2.07166e-05
2.16112e-05
2.43399e-05
2.82842e-05
3.26577e-05
3.68536e-05
4.05269e-05
4.35169e-05
4.57511e-05
4.71827e-05
4.77765e-05
4.75386e-05
4.6524e-05
4.47558e-05
4.21951e-05
3.87696e-05
3.45127e-05
2.97783e-05
2.33948e-05
2.69704e-05
3.19533e-05
3.71299e-05
4.15493e-05
4.47927e-05
4.69604e-05
4.83118e-05
4.90654e-05
4.94346e-05
4.95974e-05
4.94635e-05
4.86677e-05
4.68491e-05
4.37977e-05
3.9386e-05
3.3957e-05
2.85298e-05
2.44209e-05
2.26797e-05
3.37217e-05
3.8386e-05
4.20324e-05
4.45433e-05
4.60965e-05
4.69303e-05
4.73251e-05
4.75003e-05
4.75134e-05
4.80717e-05
4.96938e-05
5.11143e-05
5.01646e-05
4.5834e-05
3.89456e-05
3.15524e-05
2.59745e-05
2.37538e-05
2.51001e-05
2.90044e-05
4.01256e-05
4.27081e-05
4.42656e-05
4.50651e-05
4.54134e-05
4.55655e-05
4.56816e-05
4.5814e-05
4.58721e-05
4.90043e-05
5.62684e-05
6.25101e-05
6.17702e-05
5.3237e-05
4.19299e-05
3.28239e-05
2.85712e-05
2.90642e-05
3.24361e-05
3.65936e-05
4.3022e-05
4.39815e-05
4.44321e-05
4.46174e-05
4.47113e-05
4.47871e-05
4.48945e-05
4.50459e-05
4.5609e-05
5.46157e-05
7.1172e-05
8.421e-05
8.57985e-05
7.5934e-05
5.92903e-05
4.50719e-05
3.8166e-05
3.73096e-05
3.91816e-05
4.14186e-05
4.36761e-05
4.39911e-05
4.41047e-05
4.41412e-05
4.41785e-05
4.4238e-05
4.43469e-05
4.45108e-05
4.55715e-05
5.70695e-05
7.4062e-05
8.42004e-05
8.03391e-05
6.57415e-05
5.06491e-05
4.17679e-05
3.92459e-05
4.00965e-05
4.17331e-05
4.29938e-05
4.36305e-05
4.37557e-05
4.38034e-05
4.38358e-05
4.38847e-05
4.39495e-05
4.40526e-05
4.42061e-05
4.52295e-05
5.15168e-05
5.94709e-05
6.62248e-05
6.55872e-05
5.47355e-05
4.44762e-05
4.005e-05
3.99693e-05
4.13488e-05
4.25932e-05
4.33156e-05
4.35464e-05
4.36114e-05
4.36366e-05
4.36564e-05
4.36906e-05
4.37429e-05
4.38275e-05
4.39575e-05
4.41688e-05
3.98045e-05
3.29824e-05
2.81239e-05
2.8263e-05
3.15134e-05
3.42304e-05
3.70687e-05
3.97987e-05
4.17655e-05
4.28646e-05
4.33622e-05
4.34804e-05
4.35122e-05
4.35293e-05
4.35502e-05
4.35816e-05
4.3628e-05
4.36952e-05
4.38098e-05
4.39736e-05
3.87687e-05
3.1392e-05
2.51032e-05
2.33341e-05
2.67671e-05
3.22237e-05
3.71374e-05
4.04625e-05
4.22655e-05
4.30754e-05
4.33819e-05
4.34419e-05
4.34575e-05
4.34676e-05
4.34819e-05
4.3504e-05
4.35399e-05
4.35915e-05
4.36892e-05
4.38173e-05
3.78718e-05
3.0443e-05
2.43116e-05
2.29459e-05
2.71501e-05
3.3362e-05
3.8365e-05
4.13012e-05
4.26771e-05
4.32139e-05
4.33912e-05
4.34089e-05
4.34193e-05
4.34282e-05
4.34411e-05
4.3459e-05
4.34873e-05
4.35257e-05
4.36045e-05
4.36949e-05
3.71176e-05
2.97013e-05
2.38313e-05
2.35244e-05
2.86803e-05
3.49845e-05
3.94962e-05
4.18851e-05
4.29039e-05
4.32677e-05
4.33786e-05
4.33889e-05
4.33967e-05
4.34033e-05
4.34128e-05
4.34258e-05
4.34467e-05
4.34763e-05
4.35379e-05
4.36152e-05
3.65434e-05
2.95301e-05
2.44473e-05
2.49345e-05
3.03512e-05
3.62695e-05
4.02225e-05
4.22039e-05
4.30099e-05
4.32858e-05
4.33671e-05
4.33745e-05
4.33816e-05
4.33874e-05
4.33952e-05
4.34052e-05
4.34204e-05
4.34423e-05
4.34861e-05
4.35447e-05
3.62851e-05
2.87673e-05
2.33821e-05
2.47415e-05
3.0775e-05
3.67132e-05
4.04822e-05
4.23114e-05
4.30386e-05
4.32835e-05
4.33551e-05
4.33653e-05
4.33715e-05
4.33762e-05
4.3382e-05
4.33895e-05
4.34003e-05
4.34164e-05
4.34467e-05
4.35227e-05
3.64157e-05
2.97365e-05
2.48113e-05
2.59719e-05
3.1539e-05
3.70871e-05
4.06352e-05
4.23629e-05
4.30491e-05
4.32797e-05
4.3347e-05
4.33594e-05
4.33646e-05
4.33684e-05
4.3373e-05
4.33788e-05
4.33866e-05
4.33984e-05
4.34186e-05
4.34844e-05
3.59623e-05
2.80879e-05
2.36377e-05
2.60368e-05
3.20611e-05
3.75202e-05
4.08694e-05
4.24599e-05
4.30798e-05
4.32848e-05
4.33437e-05
4.3356e-05
4.33594e-05
4.33621e-05
4.33657e-05
4.33701e-05
4.33756e-05
4.33821e-05
4.33915e-05
4.33951e-05
3.61594e-05
2.63093e-05
2.30698e-05
2.69534e-05
3.34228e-05
3.86011e-05
4.14704e-05
4.27181e-05
4.31691e-05
4.33087e-05
4.33465e-05
4.33546e-05
4.33555e-05
4.33573e-05
4.336e-05
4.33635e-05
4.3368e-05
4.33731e-05
4.33796e-05
4.3382e-05
4.26037e-05
4.21569e-05
4.23704e-05
4.27738e-05
4.30366e-05
4.31533e-05
4.32543e-05
4.3318e-05
4.33451e-05
4.3353e-05
4.33544e-05
4.33511e-05
4.33515e-05
4.33529e-05
4.3355e-05
4.33578e-05
4.33614e-05
4.33652e-05
4.33699e-05
4.33749e-05
4.33577e-05
4.33476e-05
4.33527e-05
4.33633e-05
4.33678e-05
4.33662e-05
4.33627e-05
4.33593e-05
4.3356e-05
4.33533e-05
4.33517e-05
4.33479e-05
4.33481e-05
4.33491e-05
4.33508e-05
4.33531e-05
4.3356e-05
4.3359e-05
4.33623e-05
4.33648e-05
4.33666e-05
4.33653e-05
4.33652e-05
4.33669e-05
4.33664e-05
4.33642e-05
4.33606e-05
4.33567e-05
4.33531e-05
4.33504e-05
4.33487e-05
4.33449e-05
4.33449e-05
4.33456e-05
4.33469e-05
4.33488e-05
4.33512e-05
4.33538e-05
4.33568e-05
4.33592e-05
4.33609e-05
4.33604e-05
4.33598e-05
4.33602e-05
4.33598e-05
4.33583e-05
4.33555e-05
4.33524e-05
4.33495e-05
4.33472e-05
4.33457e-05
4.33421e-05
4.3342e-05
4.33424e-05
4.33435e-05
4.3345e-05
4.3347e-05
4.33492e-05
4.33515e-05
4.33533e-05
4.33549e-05
4.3355e-05
4.33551e-05
4.33558e-05
4.33554e-05
4.3354e-05
4.33517e-05
4.33491e-05
4.33465e-05
4.33445e-05
4.3343e-05
4.33395e-05
4.33392e-05
4.33395e-05
4.33403e-05
4.33416e-05
4.33433e-05
4.33452e-05
4.33473e-05
4.3349e-05
4.33506e-05
4.33508e-05
4.33509e-05
4.33512e-05
4.33508e-05
4.33497e-05
4.33478e-05
4.33457e-05
4.33435e-05
4.33417e-05
4.33403e-05
4.33371e-05
4.33367e-05
4.33368e-05
4.33375e-05
4.33385e-05
4.33399e-05
4.33415e-05
4.33433e-05
4.33448e-05
4.33462e-05
4.33467e-05
4.33471e-05
4.33475e-05
4.33473e-05
4.33463e-05
4.33447e-05
4.33428e-05
4.33409e-05
4.33392e-05
4.33379e-05
4.33348e-05
4.33344e-05
4.33344e-05
4.33349e-05
4.33357e-05
4.33369e-05
4.33383e-05
4.33399e-05
4.33413e-05
4.33426e-05
4.33432e-05
4.33436e-05
4.33439e-05
4.33436e-05
4.33429e-05
4.33416e-05
4.334e-05
4.33383e-05
4.33368e-05
4.33356e-05
4.33327e-05
4.33322e-05
4.33322e-05
4.33325e-05
4.33332e-05
4.33342e-05
4.33354e-05
4.33368e-05
4.3338e-05
4.33393e-05
4.33399e-05
4.33405e-05
4.33408e-05
4.33407e-05
4.334e-05
4.33389e-05
4.33375e-05
4.3336e-05
4.33346e-05
4.33335e-05
4.33307e-05
4.33303e-05
4.33301e-05
4.33304e-05
4.33309e-05
4.33318e-05
4.33328e-05
4.33341e-05
4.33352e-05
4.33364e-05
4.3337e-05
4.33376e-05
4.33379e-05
4.33378e-05
4.33373e-05
4.33363e-05
4.33351e-05
4.33338e-05
4.33326e-05
4.33315e-05
4.3329e-05
4.33285e-05
4.33283e-05
4.33284e-05
4.33288e-05
4.33296e-05
4.33305e-05
4.33316e-05
4.33326e-05
4.33337e-05
4.33344e-05
4.3335e-05
4.33353e-05
4.33353e-05
4.33349e-05
4.33341e-05
4.3333e-05
4.33318e-05
4.33307e-05
4.33297e-05
4.33273e-05
4.33269e-05
4.33266e-05
4.33267e-05
4.3327e-05
4.33276e-05
4.33284e-05
4.33294e-05
4.33304e-05
4.33314e-05
4.33321e-05
4.33326e-05
4.3333e-05
4.3333e-05
4.33327e-05
4.3332e-05
4.33311e-05
4.333e-05
4.3329e-05
4.33281e-05
4.33259e-05
4.33254e-05
4.33251e-05
4.33251e-05
4.33254e-05
4.33259e-05
4.33266e-05
4.33275e-05
4.33284e-05
4.33293e-05
4.333e-05
4.33305e-05
4.33309e-05
4.3331e-05
4.33307e-05
4.33301e-05
4.33293e-05
4.33284e-05
4.33274e-05
4.33266e-05
4.33246e-05
4.33241e-05
4.33238e-05
4.33237e-05
4.33239e-05
4.33244e-05
4.3325e-05
4.33258e-05
4.33266e-05
4.33275e-05
4.33281e-05
4.33287e-05
4.3329e-05
4.33291e-05
4.33289e-05
4.33284e-05
4.33277e-05
4.33269e-05
4.3326e-05
4.33252e-05
4.33234e-05
4.33229e-05
4.33226e-05
4.33225e-05
4.33226e-05
4.3323e-05
4.33235e-05
4.33243e-05
4.3325e-05
4.33258e-05
4.33265e-05
4.3327e-05
4.33274e-05
4.33275e-05
4.33274e-05
4.3327e-05
4.33263e-05
4.33256e-05
4.33248e-05
4.3324e-05
4.33224e-05
4.33219e-05
4.33215e-05
4.33214e-05
4.33215e-05
4.33218e-05
4.33223e-05
4.3323e-05
4.33237e-05
4.33244e-05
4.33251e-05
4.33256e-05
4.3326e-05
4.33261e-05
4.3326e-05
4.33257e-05
4.33251e-05
4.33244e-05
4.33237e-05
4.3323e-05
4.33214e-05
4.3321e-05
4.33206e-05
4.33205e-05
4.33205e-05
4.33208e-05
4.33212e-05
4.33218e-05
4.33225e-05
4.33232e-05
4.33238e-05
4.33244e-05
4.33247e-05
4.33249e-05
4.33248e-05
4.33245e-05
4.3324e-05
4.33234e-05
4.33227e-05
4.3322e-05
4.33207e-05
4.33202e-05
4.33198e-05
4.33197e-05
4.33197e-05
4.33199e-05
4.33203e-05
4.33209e-05
4.33215e-05
4.33222e-05
4.33228e-05
4.33233e-05
4.33237e-05
4.33239e-05
4.33238e-05
4.33236e-05
4.33231e-05
4.33225e-05
4.33219e-05
4.33213e-05
4.332e-05
4.33195e-05
4.33192e-05
4.3319e-05
4.3319e-05
4.33192e-05
4.33195e-05
4.332e-05
4.33206e-05
4.33213e-05
4.33218e-05
4.33224e-05
4.33227e-05
4.3323e-05
4.3323e-05
4.33227e-05
4.33223e-05
4.33218e-05
4.33212e-05
4.33206e-05
4.33195e-05
4.3319e-05
4.33186e-05
4.33184e-05
4.33184e-05
4.33186e-05
4.33188e-05
4.33194e-05
4.33199e-05
4.33206e-05
4.33211e-05
4.33217e-05
4.3322e-05
4.33223e-05
4.33223e-05
4.33221e-05
4.33217e-05
4.33212e-05
4.33206e-05
4.332e-05
4.3319e-05
4.33185e-05
4.33182e-05
4.33179e-05
4.33179e-05
4.33181e-05
4.33183e-05
4.33188e-05
4.33193e-05
4.332e-05
4.33205e-05
4.33211e-05
4.33214e-05
4.33217e-05
4.33217e-05
4.33215e-05
4.33212e-05
4.33207e-05
4.33201e-05
4.33196e-05
4.33187e-05
4.33183e-05
4.33179e-05
4.33176e-05
4.33176e-05
4.33177e-05
4.33179e-05
4.33184e-05
4.3319e-05
4.33196e-05
4.33201e-05
4.33207e-05
4.3321e-05
4.33213e-05
4.33214e-05
4.33212e-05
4.33209e-05
4.33204e-05
4.33198e-05
4.33193e-05
4.33186e-05
4.33182e-05
4.33178e-05
4.33175e-05
4.33175e-05
4.33176e-05
4.33178e-05
4.33183e-05
4.33188e-05
4.33194e-05
4.33199e-05
4.33205e-05
4.33208e-05
4.33211e-05
4.33212e-05
4.3321e-05
4.33207e-05
4.33202e-05
4.33196e-05
4.33192e-05
4.33477e-05
4.33521e-05
4.33462e-05
4.33452e-05
4.3352e-05
4.33467e-05
4.33459e-05
4.3355e-05
4.33486e-05
4.33575e-05
4.335e-05
4.33593e-05
4.33511e-05
4.33599e-05
4.33618e-05
4.3351e-05
4.33575e-05
4.33495e-05
4.33476e-05
4.33541e-05
2.46383e-05
2.17401e-05
2.09433e-05
2.23235e-05
2.54654e-05
2.96779e-05
3.416e-05
3.83543e-05
4.19602e-05
4.48452e-05
4.69519e-05
4.82397e-05
4.86735e-05
4.82581e-05
4.70492e-05
4.50667e-05
4.2262e-05
3.85666e-05
3.40607e-05
2.91919e-05
2.45004e-05
2.84185e-05
3.3547e-05
3.86677e-05
4.29093e-05
4.5957e-05
4.79699e-05
4.92123e-05
4.98849e-05
5.02029e-05
5.03736e-05
5.03112e-05
4.96062e-05
4.78311e-05
4.47096e-05
4.00894e-05
3.44078e-05
2.88452e-05
2.48273e-05
2.33933e-05
3.52052e-05
3.97369e-05
4.32072e-05
4.55562e-05
4.69834e-05
4.7731e-05
4.80829e-05
4.82405e-05
4.82324e-05
4.88658e-05
5.07612e-05
5.25179e-05
5.17208e-05
4.72614e-05
4.0079e-05
3.24463e-05
2.68481e-05
2.48221e-05
2.64323e-05
3.04978e-05
4.13008e-05
4.37322e-05
4.51654e-05
4.58814e-05
4.61861e-05
4.63235e-05
4.64386e-05
4.65746e-05
4.65953e-05
5.00506e-05
5.81422e-05
6.51163e-05
6.4403e-05
5.52817e-05
4.34018e-05
3.40055e-05
2.97614e-05
3.038e-05
3.38101e-05
3.79048e-05
4.39672e-05
4.48285e-05
4.52237e-05
4.53839e-05
4.54706e-05
4.55456e-05
4.56566e-05
4.58121e-05
4.63608e-05
5.63428e-05
7.47535e-05
8.92555e-05
9.11443e-05
8.04374e-05
6.24305e-05
4.72126e-05
3.98216e-05
3.8735e-05
4.0432e-05
4.25027e-05
4.4504e-05
4.47751e-05
4.48708e-05
4.49022e-05
4.49411e-05
4.50029e-05
4.51154e-05
4.5283e-05
4.63803e-05
5.92406e-05
7.83291e-05
8.96832e-05
8.53778e-05
6.94303e-05
5.31663e-05
4.35875e-05
4.07034e-05
4.13226e-05
4.27784e-05
4.3905e-05
4.44249e-05
4.45294e-05
4.45706e-05
4.46021e-05
4.4652e-05
4.47179e-05
4.48232e-05
4.49794e-05
4.60473e-05
5.32884e-05
6.27744e-05
7.0963e-05
7.03162e-05
5.81895e-05
4.68295e-05
4.17682e-05
4.13226e-05
4.24569e-05
4.35354e-05
4.41589e-05
4.43269e-05
4.43814e-05
4.4404e-05
4.44241e-05
4.44595e-05
4.45131e-05
4.45993e-05
4.47316e-05
4.49482e-05
4.03214e-05
3.33178e-05
2.86357e-05
2.94064e-05
3.30891e-05
3.5779e-05
3.8443e-05
4.0968e-05
4.27574e-05
4.37374e-05
4.41707e-05
4.4254e-05
4.42816e-05
4.42983e-05
4.43197e-05
4.43517e-05
4.43989e-05
4.44671e-05
4.45837e-05
4.47501e-05
3.92555e-05
3.171e-05
2.54132e-05
2.39431e-05
2.77624e-05
3.33984e-05
3.82791e-05
4.14779e-05
4.31625e-05
4.38983e-05
4.41691e-05
4.42124e-05
4.42265e-05
4.42368e-05
4.42517e-05
4.42745e-05
4.43113e-05
4.43635e-05
4.44631e-05
4.45924e-05
3.83391e-05
3.07963e-05
2.46487e-05
2.34918e-05
2.80193e-05
3.43951e-05
3.93752e-05
4.22185e-05
4.3516e-05
4.40092e-05
4.41679e-05
4.4179e-05
4.41889e-05
4.4198e-05
4.42114e-05
4.42297e-05
4.42586e-05
4.42974e-05
4.43777e-05
4.44681e-05
3.75683e-05
3.00763e-05
2.41974e-05
2.41057e-05
2.9543e-05
3.59617e-05
4.04379e-05
4.27518e-05
4.37156e-05
4.40518e-05
4.4152e-05
4.4159e-05
4.41665e-05
4.41733e-05
4.41832e-05
4.41965e-05
4.4218e-05
4.42479e-05
4.43106e-05
4.4388e-05
3.69768e-05
2.99627e-05
2.48957e-05
2.5573e-05
3.1222e-05
3.7217e-05
4.11292e-05
4.30471e-05
4.38102e-05
4.40657e-05
4.41393e-05
4.41448e-05
4.41515e-05
4.41575e-05
4.41656e-05
4.41759e-05
4.41915e-05
4.42136e-05
4.42581e-05
4.43169e-05
3.67197e-05
2.91715e-05
2.38032e-05
2.53883e-05
3.16453e-05
3.76474e-05
4.1375e-05
4.31461e-05
4.38352e-05
4.40622e-05
4.41272e-05
4.41355e-05
4.41415e-05
4.41462e-05
4.41524e-05
4.41601e-05
4.41712e-05
4.41875e-05
4.42183e-05
4.42956e-05
3.68708e-05
3.02271e-05
2.52999e-05
2.66419e-05
3.24067e-05
3.80125e-05
4.15216e-05
4.31941e-05
4.38442e-05
4.4058e-05
4.41191e-05
4.41296e-05
4.41345e-05
4.41384e-05
4.41432e-05
4.41492e-05
4.41572e-05
4.41693e-05
4.41898e-05
4.4257e-05
3.63917e-05
2.84842e-05
2.40953e-05
2.67251e-05
3.29408e-05
3.84439e-05
4.17497e-05
4.32864e-05
4.38726e-05
4.40622e-05
4.41156e-05
4.41261e-05
4.41293e-05
4.41321e-05
4.41358e-05
4.41404e-05
4.41461e-05
4.41527e-05
4.41624e-05
4.41657e-05
3.65536e-05
2.64655e-05
2.34295e-05
2.76632e-05
3.43373e-05
3.95298e-05
4.23389e-05
4.35334e-05
4.39558e-05
4.40837e-05
4.41176e-05
4.41243e-05
4.41252e-05
4.41271e-05
4.41301e-05
4.41337e-05
4.41384e-05
4.41435e-05
4.41501e-05
4.41525e-05
4.33363e-05
4.29009e-05
4.31437e-05
4.35579e-05
4.38162e-05
4.39317e-05
4.40309e-05
4.40913e-05
4.41161e-05
4.41229e-05
4.4124e-05
4.41207e-05
4.41212e-05
4.41227e-05
4.4125e-05
4.41279e-05
4.41315e-05
4.41354e-05
4.41402e-05
4.41453e-05
4.41272e-05
4.41175e-05
4.41231e-05
4.41338e-05
4.4138e-05
4.41361e-05
4.41325e-05
4.41288e-05
4.41254e-05
4.41228e-05
4.41212e-05
4.41175e-05
4.41177e-05
4.41188e-05
4.41206e-05
4.4123e-05
4.4126e-05
4.41291e-05
4.41325e-05
4.4135e-05
4.41368e-05
4.41353e-05
4.41352e-05
4.41369e-05
4.41363e-05
4.41339e-05
4.41301e-05
4.41261e-05
4.41225e-05
4.41198e-05
4.41182e-05
4.41144e-05
4.41145e-05
4.41152e-05
4.41167e-05
4.41186e-05
4.41212e-05
4.41238e-05
4.41268e-05
4.41293e-05
4.41309e-05
4.41303e-05
4.41297e-05
4.41301e-05
4.41296e-05
4.41279e-05
4.4125e-05
4.41218e-05
4.41189e-05
4.41166e-05
4.41151e-05
4.41116e-05
4.41115e-05
4.4112e-05
4.41132e-05
4.41148e-05
4.41168e-05
4.41191e-05
4.41215e-05
4.41233e-05
4.41248e-05
4.41248e-05
4.4125e-05
4.41256e-05
4.41251e-05
4.41236e-05
4.41212e-05
4.41185e-05
4.41159e-05
4.41139e-05
4.41124e-05
4.41089e-05
4.41087e-05
4.41091e-05
4.41099e-05
4.41113e-05
4.4113e-05
4.4115e-05
4.41171e-05
4.41189e-05
4.41204e-05
4.41206e-05
4.41207e-05
4.41209e-05
4.41204e-05
4.41193e-05
4.41173e-05
4.41151e-05
4.41129e-05
4.41111e-05
4.41097e-05
4.41065e-05
4.41062e-05
4.41064e-05
4.4107e-05
4.41081e-05
4.41096e-05
4.41112e-05
4.41131e-05
4.41146e-05
4.41159e-05
4.41164e-05
4.41168e-05
4.41172e-05
4.41169e-05
4.41158e-05
4.41141e-05
4.41122e-05
4.41103e-05
4.41086e-05
4.41073e-05
4.41042e-05
4.41038e-05
4.41039e-05
4.41044e-05
4.41052e-05
4.41065e-05
4.41079e-05
4.41096e-05
4.4111e-05
4.41123e-05
4.41129e-05
4.41133e-05
4.41135e-05
4.41132e-05
4.41124e-05
4.4111e-05
4.41093e-05
4.41077e-05
4.41062e-05
4.4105e-05
4.4102e-05
4.41016e-05
4.41016e-05
4.4102e-05
4.41027e-05
4.41037e-05
4.4105e-05
4.41064e-05
4.41076e-05
4.41089e-05
4.41095e-05
4.411e-05
4.41104e-05
4.41102e-05
4.41095e-05
4.41083e-05
4.41068e-05
4.41053e-05
4.4104e-05
4.41028e-05
4.41001e-05
4.40996e-05
4.40995e-05
4.40998e-05
4.41003e-05
4.41013e-05
4.41023e-05
4.41036e-05
4.41048e-05
4.41059e-05
4.41066e-05
4.41071e-05
4.41074e-05
4.41072e-05
4.41067e-05
4.41057e-05
4.41044e-05
4.41031e-05
4.41019e-05
4.41008e-05
4.40983e-05
4.40978e-05
4.40976e-05
4.40978e-05
4.40983e-05
4.4099e-05
4.41e-05
4.41011e-05
4.41021e-05
4.41032e-05
4.41039e-05
4.41045e-05
4.41048e-05
4.41047e-05
4.41043e-05
4.41034e-05
4.41023e-05
4.41011e-05
4.41e-05
4.4099e-05
4.40966e-05
4.40961e-05
4.40959e-05
4.4096e-05
4.40964e-05
4.4097e-05
4.40979e-05
4.40989e-05
4.40998e-05
4.41008e-05
4.41015e-05
4.41021e-05
4.41024e-05
4.41024e-05
4.4102e-05
4.41013e-05
4.41003e-05
4.40993e-05
4.40983e-05
4.40973e-05
4.40951e-05
4.40946e-05
4.40944e-05
4.40944e-05
4.40947e-05
4.40953e-05
4.4096e-05
4.40969e-05
4.40978e-05
4.40987e-05
4.40994e-05
4.41e-05
4.41003e-05
4.41003e-05
4.41e-05
4.40994e-05
4.40986e-05
4.40976e-05
4.40967e-05
4.40958e-05
4.40938e-05
4.40933e-05
4.4093e-05
4.4093e-05
4.40932e-05
4.40937e-05
4.40943e-05
4.40952e-05
4.4096e-05
4.40968e-05
4.40975e-05
4.40981e-05
4.40984e-05
4.40985e-05
4.40982e-05
4.40977e-05
4.4097e-05
4.40961e-05
4.40953e-05
4.40945e-05
4.40926e-05
4.40921e-05
4.40918e-05
4.40917e-05
4.40919e-05
4.40923e-05
4.40929e-05
4.40936e-05
4.40944e-05
4.40952e-05
4.40958e-05
4.40964e-05
4.40967e-05
4.40968e-05
4.40967e-05
4.40962e-05
4.40956e-05
4.40948e-05
4.4094e-05
4.40932e-05
4.40915e-05
4.40911e-05
4.40908e-05
4.40906e-05
4.40908e-05
4.40911e-05
4.40916e-05
4.40923e-05
4.4093e-05
4.40938e-05
4.40944e-05
4.40949e-05
4.40953e-05
4.40954e-05
4.40953e-05
4.40949e-05
4.40943e-05
4.40936e-05
4.40929e-05
4.40922e-05
4.40906e-05
4.40901e-05
4.40898e-05
4.40897e-05
4.40897e-05
4.409e-05
4.40905e-05
4.40911e-05
4.40918e-05
4.40925e-05
4.40931e-05
4.40937e-05
4.4094e-05
4.40942e-05
4.40941e-05
4.40937e-05
4.40932e-05
4.40926e-05
4.40919e-05
4.40912e-05
4.40898e-05
4.40894e-05
4.4089e-05
4.40889e-05
4.40889e-05
4.40892e-05
4.40895e-05
4.40901e-05
4.40907e-05
4.40915e-05
4.4092e-05
4.40926e-05
4.40929e-05
4.40931e-05
4.40931e-05
4.40928e-05
4.40923e-05
4.40917e-05
4.40911e-05
4.40904e-05
4.40891e-05
4.40887e-05
4.40883e-05
4.40881e-05
4.40882e-05
4.40884e-05
4.40887e-05
4.40893e-05
4.40899e-05
4.40905e-05
4.40911e-05
4.40916e-05
4.4092e-05
4.40922e-05
4.40922e-05
4.40919e-05
4.40915e-05
4.40909e-05
4.40903e-05
4.40897e-05
4.40886e-05
4.40882e-05
4.40878e-05
4.40876e-05
4.40876e-05
4.40878e-05
4.40881e-05
4.40886e-05
4.40892e-05
4.40898e-05
4.40904e-05
4.40909e-05
4.40913e-05
4.40915e-05
4.40915e-05
4.40913e-05
4.40909e-05
4.40904e-05
4.40898e-05
4.40892e-05
4.40881e-05
4.40877e-05
4.40873e-05
4.40871e-05
4.40871e-05
4.40872e-05
4.40875e-05
4.4088e-05
4.40886e-05
4.40892e-05
4.40897e-05
4.40903e-05
4.40906e-05
4.40909e-05
4.40909e-05
4.40907e-05
4.40903e-05
4.40898e-05
4.40892e-05
4.40887e-05
4.40879e-05
4.40874e-05
4.40871e-05
4.40868e-05
4.40868e-05
4.40869e-05
4.40871e-05
4.40877e-05
4.40882e-05
4.40888e-05
4.40893e-05
4.40899e-05
4.40902e-05
4.40905e-05
4.40906e-05
4.40903e-05
4.409e-05
4.40895e-05
4.40889e-05
4.40884e-05
4.40877e-05
4.40873e-05
4.40869e-05
4.40867e-05
4.40866e-05
4.40868e-05
4.4087e-05
4.40875e-05
4.4088e-05
4.40886e-05
4.40891e-05
4.40897e-05
4.409e-05
4.40903e-05
4.40903e-05
4.40901e-05
4.40898e-05
4.40893e-05
4.40888e-05
4.40883e-05
4.41162e-05
4.41201e-05
4.41147e-05
4.41139e-05
4.41202e-05
4.41153e-05
4.41146e-05
4.41231e-05
4.41172e-05
4.41255e-05
4.41185e-05
4.41274e-05
4.41196e-05
4.41279e-05
4.41295e-05
4.41194e-05
4.41255e-05
4.41179e-05
4.41163e-05
4.41222e-05
2.41526e-05
2.16092e-05
2.13031e-05
2.31802e-05
2.67218e-05
3.11643e-05
3.57253e-05
3.98964e-05
4.34194e-05
4.61877e-05
4.81573e-05
4.92932e-05
4.95594e-05
4.89583e-05
4.75446e-05
4.53353e-05
4.2272e-05
3.82969e-05
3.355e-05
2.8582e-05
2.57323e-05
2.99616e-05
3.519e-05
4.02197e-05
4.42681e-05
4.71268e-05
4.89911e-05
5.01291e-05
5.07215e-05
5.09884e-05
5.1175e-05
5.12032e-05
5.06125e-05
4.88973e-05
4.5704e-05
4.08565e-05
3.4911e-05
2.92265e-05
2.5331e-05
2.42314e-05
3.67116e-05
4.10972e-05
4.43888e-05
4.65785e-05
4.78836e-05
4.85511e-05
4.88642e-05
4.90066e-05
4.89738e-05
4.96862e-05
5.1877e-05
5.39944e-05
5.33561e-05