/*--------------------------------*- C++ -*----------------------------------*\
| =========                 |                                                 |
| \\      /  F ield         | OpenFOAM: The Open Source CFD Toolbox           |
|  \\    /   O peration     | Version:  2.4.0                                 |
|   \\  /    A nd           | Web:      www.OpenFOAM.org                      |
|    \\/     M anipulation  |                                                 |
\*---------------------------------------------------------------------------*/
FoamFile
{
    version     2.0;
    format      ascii;
    class       volScalarField;
    location    "170";
    object      p;
}
// * * * * * * * * * * * * * * * * * * * * * * * * * * * * * * * * * * * * * //

dimensions      [0 2 -2 0 0 0 0];

internalField   nonuniform List<scalar> 
283312
(
-0.00623064
-0.00629401
-0.00653727
-0.00687956
-0.00723248
-0.0075267
-0.00775469
-0.00791226
-0.0080327
-0.00814021
-0.00825539
-0.00836499
-0.00843674
-0.00841482
-0.00826481
-0.00799387
-0.00761394
-0.00716175
-0.00671838
-0.00638174
0.00214286
0.00163993
0.00121462
0.00094746
0.000850652
0.00091851
0.00106326
0.00120553
0.00131744
0.00140688
0.00147629
0.00155724
0.00168706
0.00188813
0.00217251
0.00253886
0.0028508
0.00299769
0.00291701
0.0026086
-0.00231315
-0.0021563
-0.00192719
-0.00168208
-0.00148633
-0.00138688
-0.00136682
-0.00137136
-0.00141841
-0.00145748
-0.00148491
-0.00146156
-0.00139026
-0.00129375
-0.00125326
-0.00136787
-0.00161779
-0.00191942
-0.00218526
-0.0023278
0.00146779
0.00164414
0.00179036
0.00190716
0.00199143
0.00206116
0.00206904
0.00207705
0.0020463
0.0020611
0.00208248
0.00213042
0.00215353
0.00210288
0.00196709
0.00172013
0.00146804
0.00128592
0.00123524
0.00131428
-0.000742991
-0.000543196
-0.000425687
-0.00034672
-0.000342973
-0.000329365
-0.000339837
-0.000324259
-0.00035067
-0.000321133
-0.000323176
-0.000379702
-0.000568374
-0.000902119
-0.00133855
-0.00168124
-0.00176811
-0.00162096
-0.00133085
-0.00101127
0.0011969
0.00130706
0.00136515
0.00141123
0.00142522
0.00143323
0.00139959
0.00138799
0.00132675
0.00134342
0.0012953
0.00116674
0.000872222
0.000495376
0.000223543
0.000156356
0.00029283
0.000542975
0.000812981
0.00103905
-0.000149837
-0.000109618
-0.000102259
-9.60495e-05
-0.000107025
-8.154e-05
-8.13064e-05
-5.17868e-05
-8.0246e-05
-4.83667e-05
-0.000151584
-0.000421914
-0.000860791
-0.00129487
-0.00143547
-0.0012753
-0.000952009
-0.000631789
-0.000385315
-0.000230221
0.000758534
0.000807907
0.000831512
0.000856615
0.000845098
0.000841806
0.000804872
0.000785225
0.000718806
0.000712818
0.000565535
0.000258828
-0.000158748
-0.000373173
-0.000332409
-9.96797e-05
0.000190793
0.000422564
0.000587797
0.000692847
-7.95071e-07
1.59228e-06
-8.85363e-06
-1.00904e-05
-1.13186e-05
1.078e-05
1.29607e-05
3.32312e-05
7.00129e-06
1.30231e-05
-0.000174396
-0.00057456
-0.000979721
-0.00107644
-0.000874977
-0.000587652
-0.000321581
-0.000154915
-5.70424e-05
-1.37505e-05
0.000438593
0.000463261
0.000474056
0.000484575
0.000471853
0.000463619
0.000433614
0.000411718
0.000359891
0.000344382
0.000169033
-0.000195926
-0.000448404
-0.000441919
-0.00021755
4.94485e-06
0.000189628
0.000295761
0.000367155
0.000409083
4.31885e-05
4.15886e-05
3.30563e-05
3.52042e-05
3.46091e-05
4.97798e-05
5.03669e-05
6.68979e-05
5.07003e-05
7.671e-05
-9.67514e-05
-0.000522264
-0.00070341
-0.000625921
-0.000388353
-0.000206074
-6.8959e-05
-5.96164e-06
3.11655e-05
4.20669e-05
0.00024917
0.000260945
0.000264746
0.000267878
0.000256743
0.000248039
0.000224726
0.000207391
0.00017307
0.00019289
5.90421e-05
-0.000220388
-0.000325304
-0.000221777
-4.43211e-05
6.84123e-05
0.000153388
0.000189581
0.0002196
0.000235391
5.42294e-05
5.44602e-05
5.02058e-05
5.38497e-05
5.27837e-05
6.41616e-05
6.39982e-05
8.77676e-05
8.50709e-05
0.000192032
7.97049e-05
-0.000265766
-0.000350044
-0.000286481
-0.000143382
-6.30581e-05
4.13272e-06
2.7856e-05
4.77066e-05
5.22825e-05
0.000144379
0.000149564
0.000149762
0.000150031
0.00014026
0.000132491
0.000113541
0.000101566
8.1693e-05
0.000139449
0.000100145
-4.81149e-05
-0.00010552
-5.13702e-05
3.44515e-05
7.06843e-05
0.000107798
0.000117306
0.000132031
0.000137648
5.21227e-05
5.39961e-05
5.26625e-05
5.63419e-05
5.52294e-05
6.4323e-05
6.47923e-05
9.35639e-05
0.000106059
0.000281448
0.000269421
-4.77978e-05
-0.000134563
-0.000137857
-7.4271e-05
-3.46032e-05
1.08361e-05
2.6312e-05
4.33088e-05
4.8132e-05
8.82841e-05
9.04916e-05
8.92817e-05
8.8476e-05
8.014e-05
7.32803e-05
5.70673e-05
4.66231e-05
2.91502e-05
8.66838e-05
0.000197399
3.89894e-05
-1.78493e-05
-1.84152e-05
2.20254e-05
3.50593e-05
6.32364e-05
6.97981e-05
8.13402e-05
8.42647e-05
4.57328e-05
4.8014e-05
4.79957e-05
5.09021e-05
4.98591e-05
5.59421e-05
5.58846e-05
7.24835e-05
6.90194e-05
0.000108043
6.81315e-05
-2.89089e-05
-3.83875e-05
-5.36087e-05
-2.02932e-05
-1.17447e-05
1.45394e-05
2.30437e-05
3.66667e-05
4.11621e-05
5.89998e-05
5.97482e-05
5.82449e-05
5.71399e-05
5.04219e-05
4.45758e-05
3.18966e-05
2.16419e-05
9.93337e-06
9.58482e-06
4.17246e-05
1.10438e-05
1.99888e-05
1.73728e-05
3.68484e-05
3.53678e-05
4.90304e-05
4.89543e-05
5.58223e-05
5.66385e-05
3.91302e-05
4.0992e-05
4.13122e-05
4.31955e-05
4.21246e-05
4.56247e-05
4.56771e-05
5.39149e-05
5.1789e-05
5.87937e-05
3.45592e-05
-1.43487e-05
-1.57613e-05
-2.97202e-05
-7.94308e-06
-4.43242e-06
1.44309e-05
2.03332e-05
3.11989e-05
3.49114e-05
4.34612e-05
4.35567e-05
4.22576e-05
4.1157e-05
3.60154e-05
3.13214e-05
2.19165e-05
1.31473e-05
4.60018e-06
-2.00451e-06
1.22404e-05
7.26723e-06
2.35361e-05
2.11785e-05
3.45661e-05
3.04775e-05
3.88792e-05
3.72669e-05
4.18421e-05
4.18822e-05
3.38445e-05
3.49577e-05
3.52179e-05
3.61788e-05
3.48802e-05
3.6531e-05
3.63791e-05
3.97891e-05
3.92901e-05
3.82742e-05
2.60375e-05
-4.48042e-06
-5.50296e-06
-1.65924e-05
-1.63655e-06
5.51525e-07
1.46338e-05
1.90885e-05
2.75591e-05
3.02571e-05
3.48866e-05
3.46548e-05
3.37486e-05
3.27637e-05
2.89497e-05
2.54271e-05
1.87199e-05
1.17361e-05
6.03161e-06
-5.28394e-07
7.34755e-06
7.61834e-06
2.24158e-05
2.02585e-05
3.0142e-05
2.62761e-05
3.20456e-05
3.05017e-05
3.3845e-05
3.36766e-05
3.013e-05
3.04201e-05
3.06124e-05
3.0825e-05
2.93508e-05
2.97275e-05
2.91418e-05
2.97154e-05
3.02411e-05
2.65145e-05
2.15333e-05
1.33764e-06
1.57975e-06
-6.52167e-06
4.15839e-06
5.5811e-06
1.58386e-05
1.91557e-05
2.54779e-05
2.72149e-05
3.00982e-05
2.94599e-05
2.90014e-05
2.80707e-05
2.51176e-05
2.25495e-05
1.83842e-05
1.25787e-05
9.50724e-06
3.58398e-06
8.94621e-06
8.74816e-06
2.04813e-05
1.80252e-05
2.58437e-05
2.30794e-05
2.7308e-05
2.64439e-05
2.9078e-05
2.87622e-05
2.77308e-05
2.71966e-05
2.74938e-05
2.7226e-05
2.5515e-05
2.51954e-05
2.42613e-05
2.29807e-05
2.41266e-05
1.95687e-05
1.86086e-05
5.17582e-06
7.16609e-06
1.35234e-06
9.25819e-06
1.02384e-05
1.73296e-05
1.98571e-05
2.44423e-05
2.5263e-05
2.73425e-05
2.62123e-05
2.62152e-05
2.51995e-05
2.28084e-05
2.12315e-05
1.84105e-05
1.36553e-05
1.3063e-05
6.95525e-06
1.19666e-05
9.45965e-06
1.88081e-05
1.62463e-05
2.23373e-05
2.08802e-05
2.40851e-05
2.40503e-05
2.61154e-05
2.5668e-05
2.60779e-05
2.50819e-05
2.56474e-05
2.47714e-05
2.31715e-05
2.24744e-05
2.16187e-05
1.88418e-05
2.05143e-05
1.55429e-05
1.73154e-05
7.9821e-06
1.15048e-05
6.74897e-06
1.31815e-05
1.38511e-05
1.87064e-05
2.07877e-05
2.37828e-05
2.41305e-05
2.58162e-05
2.37561e-05
2.45655e-05
2.34648e-05
2.11756e-05
2.02394e-05
1.84437e-05
1.41404e-05
1.54297e-05
9.19173e-06
1.43358e-05
1.00713e-05
1.7931e-05
1.4987e-05
2.01719e-05
1.97265e-05
2.17499e-05
2.27396e-05
2.43877e-05
2.35984e-05
2.55209e-05
2.35319e-05
2.46588e-05
2.31968e-05
2.1366e-05
2.1399e-05
2.00206e-05
1.64472e-05
1.94943e-05
1.30523e-05
1.75448e-05
9.31769e-06
1.46447e-05
1.05254e-05
1.56106e-05
1.67153e-05
1.95523e-05
2.16986e-05
2.33453e-05
2.30348e-05
2.45467e-05
2.2027e-05
2.36963e-05
2.1977e-05
2.00664e-05
1.96823e-05
1.85789e-05
1.36206e-05
1.69813e-05
9.98402e-06
1.61415e-05
1.02336e-05
1.79345e-05
1.38633e-05
1.87954e-05
1.90384e-05
2.03184e-05
2.21892e-05
2.29197e-05
2.22806e-05
2.54658e-05
2.16979e-05
2.42903e-05
2.26884e-05
1.99491e-05
2.05849e-05
1.94001e-05
1.49401e-05
1.94474e-05
1.16961e-05
1.83046e-05
1.01105e-05
1.69119e-05
1.25177e-05
1.74402e-05
1.88041e-05
1.93248e-05
2.25297e-05
2.35018e-05
2.2042e-05
2.41071e-05
2.02046e-05
2.32127e-05
2.10158e-05
1.85177e-05
1.97288e-05
1.8423e-05
1.26298e-05
1.84967e-05
9.1961e-06
1.79096e-05
9.36924e-06
1.80819e-05
1.29735e-05
1.76244e-05
1.9067e-05
1.89048e-05
2.2017e-05
2.18678e-05
2.05938e-05
2.53502e-05
2.04855e-05
2.44228e-05
2.17619e-05
1.87898e-05
2.06607e-05
1.90693e-05
1.32474e-05
2.01373e-05
1.03691e-05
1.95631e-05
1.00133e-05
1.89011e-05
1.31095e-05
1.81822e-05
2.00556e-05
1.91573e-05
2.33723e-05
2.29411e-05
2.11449e-05
2.43526e-05
1.75512e-05
2.3222e-05
2.06495e-05
1.59574e-05
2.02328e-05
1.81962e-05
1.06659e-05
1.9703e-05
7.47779e-06
1.93252e-05
7.82175e-06
1.86452e-05
1.14891e-05
1.64322e-05
1.97028e-05
1.66713e-05
2.21327e-05
2.12719e-05
1.80794e-05
2.54473e-05
1.86427e-05
2.4962e-05
2.10362e-05
1.7167e-05
2.13771e-05
1.86834e-05
1.10335e-05
2.16874e-05
8.10398e-06
2.14545e-05
8.45164e-06
2.05867e-05
1.23204e-05
1.82906e-05
2.09492e-05
1.79794e-05
2.42966e-05
2.2253e-05
1.97598e-05
2.44699e-05
1.43434e-05
2.4092e-05
1.95412e-05
1.26529e-05
2.14394e-05
1.77437e-05
6.98461e-06
2.14328e-05
3.9945e-06
2.11754e-05
4.65375e-06
1.96573e-05
8.69572e-06
1.49406e-05
2.00355e-05
1.38486e-05
2.28635e-05
1.97873e-05
1.50202e-05
2.61382e-05
1.58144e-05
2.5962e-05
2.00931e-05
1.39945e-05
2.27044e-05
1.8006e-05
8.01937e-06
2.32824e-05
4.98068e-06
2.31802e-05
5.74379e-06
2.18409e-05
9.84055e-06
1.77108e-05
2.19848e-05
1.55043e-05
2.52825e-05
2.111e-05
1.69259e-05
2.54312e-05
7.92689e-06
2.67177e-05
1.85884e-05
5.7231e-06
2.46798e-05
1.71804e-05
-8.59589e-07
2.50087e-05
-3.3029e-06
2.46908e-05
-2.23836e-06
2.20915e-05
2.28464e-06
1.23594e-05
2.14717e-05
7.76281e-06
2.49718e-05
1.8161e-05
9.07818e-06
2.65563e-05
1.06771e-05
2.78274e-05
1.79524e-05
8.5308e-06
2.5334e-05
1.62688e-05
2.07914e-06
2.54921e-05
-8.46919e-07
2.52246e-05
2.23472e-07
2.30221e-05
4.57128e-06
1.58476e-05
2.22032e-05
1.04518e-05
2.65854e-05
1.83161e-05
1.20928e-05
2.86598e-05
-6.40406e-06
3.4406e-05
1.47769e-05
-1.16123e-05
3.43559e-05
1.41895e-05
-1.95094e-05
3.27114e-05
-2.02273e-05
3.1666e-05
-1.85229e-05
2.74241e-05
-1.36813e-05
7.12539e-06
2.49996e-05
-6.39678e-06
3.13111e-05
1.32807e-05
-5.30453e-06
-0.0109207
-0.0105286
-0.0102226
-0.0100109
-0.00989411
-0.00987998
-0.00999856
-0.0102306
-0.0105706
-0.0109948
-0.0114814
-0.0119796
-0.0124263
-0.0127431
-0.0128779
-0.0128413
-0.0126426
-0.0122969
-0.0118539
-0.0113762
0.00234062
0.00229535
0.00216455
0.00200369
0.00185068
0.00176134
0.00169297
0.00160852
0.001487
0.00133298
0.00113072
0.000906873
0.000716515
0.000621035
0.000681604
0.000947745
0.00132401
0.00171659
0.00204852
0.0022639
-0.00232809
-0.00209004
-0.00190098
-0.00176135
-0.00170861
-0.00176151
-0.00188632
-0.00203295
-0.00224785
-0.00250147
-0.00283196
-0.00318417
-0.00349037
-0.00366538
-0.0037068
-0.00363536
-0.00345079
-0.00317587
-0.00287715
-0.00258937
0.00289684
0.0029623
0.00298842
0.00300808
0.00301462
0.00301618
0.00295099
0.00287488
0.00271045
0.00251943
0.0021919
0.00182052
0.0015082
0.00137204
0.00149547
0.00175243
0.00209038
0.00239606
0.00263127
0.00279559
-0.00045734
-0.000308025
-0.000233617
-0.00018486
-0.000220912
-0.000234721
-0.0002941
-0.000338265
-0.000490267
-0.000682896
-0.00110078
-0.00160808
-0.00204383
-0.00228399
-0.00231505
-0.00213614
-0.00177763
-0.00136687
-0.00098326
-0.000674164
0.00201052
0.00211353
0.00216514
0.00221215
0.00220911
0.00220003
0.00211824
0.00204823
0.00185519
0.00163405
0.00112372
0.000585895
0.000201886
0.000132307
0.000341759
0.000697995
0.0010776
0.0014078
0.00167417
0.00187434
5.76216e-05
0.000103092
0.000108376
0.000113664
9.19885e-05
0.000114663
8.51327e-05
7.88156e-05
-6.49253e-05
-0.000270758
-0.000868098
-0.00150681
-0.00191843
-0.00198957
-0.00170474
-0.00125451
-0.000795562
-0.000437019
-0.000182959
-2.51967e-05
0.00124549
0.00131653
0.0013499
0.00138458
0.00136056
0.00134715
0.00127089
0.0012057
0.00102043
0.000772551
0.000130591
-0.000458975
-0.000724261
-0.000557293
-0.00017513
0.000228377
0.000587224
0.000841845
0.00102902
0.00115757
0.000169848
0.000180971
0.000169569
0.000171515
0.000164411
0.000188881
0.00016937
0.000164836
4.35782e-05
-0.000175128
-0.000846837
-0.00147315
-0.00168
-0.00142807
-0.000959574
-0.000554689
-0.000231085
-3.81607e-05
8.44386e-05
0.000145527
0.000736748
0.000777383
0.000794052
0.000809942
0.000787426
0.00077235
0.000712962
0.000658277
0.000516123
0.000290886
-0.000327951
-0.000827013
-0.000832602
-0.000540127
-0.000128549
0.000163192
0.000391844
0.000522969
0.000623495
0.000688455
0.000175851
0.000180485
0.000170985
0.00017729
0.000172235
0.000190691
0.000176306
0.000180448
9.99594e-05
-4.37312e-05
-0.000613913
-0.00113907
-0.00107673
-0.000779329
-0.000401796
-0.000172389
3.02572e-06
8.45231e-05
0.000143019
0.000166422
0.000432503
0.000453702
0.00045994
0.000466234
0.000447209
0.000434261
0.000390712
0.000354886
0.000264625
0.000139356
-0.000321473
-0.000609801
-0.000495668
-0.000231703
3.57568e-05
0.00016961
0.000280857
0.000329044
0.000378593
0.000407334
0.000153631
0.000158807
0.000154377
0.000162092
0.000157619
0.000173213
0.000164195
0.000190772
0.000156985
0.000182547
-0.000194625
-0.000566478
-0.000479706
-0.000321325
-0.000115001
-2.53778e-05
6.49674e-05
9.69463e-05
0.000132521
0.000145052
0.000259969
0.000270752
0.000271701
0.000274112
0.000257931
0.00024783
0.000215034
0.000196475
0.000150375
0.000142251
-7.82416e-05
-0.000193446
-0.00012067
-6.95808e-06
0.000112883
0.000143007
0.000193737
0.000205906
0.000233539
0.000246039
0.000126085
0.000132176
0.000131306
0.000138604
0.000134874
0.000148502
0.000144313
0.000185497
0.000192483
0.000366965
0.000231849
-0.000142409
-0.000150781
-0.000137142
-4.72374e-05
-1.05795e-05
5.36239e-05
7.4443e-05
0.000105101
0.000116079
0.000164958
0.000170751
0.000169633
0.00017035
0.000156741
0.000148353
0.000121504
0.000109136
7.81688e-05
0.000145646
0.000253427
1.08566e-05
-2.08391e-05
-1.37242e-05
5.479e-05
6.77027e-05
0.000114354
0.000124899
0.000148024
0.00015565
0.000101869
0.000107535
0.000108162
0.000113923
0.000110719
0.000120222
0.000116586
0.000141603
0.000131262
0.00018716
0.000110925
-5.84368e-05
-5.25307e-05
-7.45238e-05
-1.40719e-05
-4.23595e-06
4.22761e-05
5.65567e-05
8.25278e-05
9.20226e-05
0.000113792
0.000116813
0.000115168
0.000115114
0.00010414
9.69764e-05
7.60149e-05
6.31694e-05
4.18278e-05
4.41358e-05
7.67717e-05
6.43293e-06
3.07594e-05
2.27846e-05
6.22875e-05
5.85427e-05
8.66357e-05
8.83024e-05
0.000103944
0.00010758
8.35053e-05
8.77566e-05
8.861e-05
9.24974e-05
8.95377e-05
9.51588e-05
9.24399e-05
0.000104641
9.75195e-05
0.000107337
6.50475e-05
-2.39242e-05
-1.57431e-05
-4.00292e-05
1.03851e-06
3.878e-06
3.81168e-05
4.75271e-05
6.79265e-05
7.50734e-05
8.58353e-05
8.72797e-05
8.58051e-05
8.53694e-05
7.68739e-05
7.10218e-05
5.54005e-05
4.35193e-05
2.7976e-05
1.80537e-05
3.2355e-05
1.04274e-05
4.09537e-05
3.21165e-05
5.99614e-05
5.20143e-05
7.05542e-05
6.89882e-05
7.98705e-05
8.1423e-05
7.07111e-05
7.32474e-05
7.38764e-05
7.60775e-05
7.3013e-05
7.57844e-05
7.33971e-05
7.79911e-05
7.44629e-05
7.10472e-05
5.01222e-05
-4.14812e-06
1.84559e-06
-1.84043e-05
1.05361e-05
1.13943e-05
3.68989e-05
4.3417e-05
5.90121e-05
6.38387e-05
7.00775e-05
7.04731e-05
6.94856e-05
6.88438e-05
6.23996e-05
5.79529e-05
4.67422e-05
3.66652e-05
2.64932e-05
1.51792e-05
2.39064e-05
1.5342e-05
4.19375e-05
3.39691e-05
5.46184e-05
4.70667e-05
6.01668e-05
5.81803e-05
6.61352e-05
6.66905e-05
6.23673e-05
6.3176e-05
6.36858e-05
6.44942e-05
6.1333e-05
6.21584e-05
5.96993e-05
5.97975e-05
5.89328e-05
5.11314e-05
4.2931e-05
7.43481e-06
1.35828e-05
-1.81558e-06
1.92655e-05
1.93083e-05
3.78817e-05
4.24743e-05
5.39861e-05
5.68541e-05
6.11658e-05
6.04327e-05
6.01064e-05
5.91979e-05
5.40719e-05
5.0837e-05
4.36759e-05
3.4803e-05
2.95641e-05
1.86423e-05
2.58848e-05
1.94276e-05
4.06552e-05
3.30779e-05
4.92634e-05
4.36409e-05
5.32116e-05
5.20431e-05
5.80729e-05
5.79082e-05
5.72291e-05
5.63386e-05
5.71012e-05
5.69096e-05
5.35084e-05
5.33256e-05
5.08046e-05
4.79368e-05
4.9084e-05
3.98403e-05
3.90023e-05
1.49576e-05
2.26561e-05
1.10426e-05
2.69042e-05
2.67466e-05
3.96452e-05
4.31324e-05
5.13819e-05
5.25309e-05
5.60657e-05
5.40895e-05
5.458e-05
5.32028e-05
4.89166e-05
4.70626e-05
4.21365e-05
3.4351e-05
3.36956e-05
2.21911e-05
3.04067e-05
2.19427e-05
3.93523e-05
3.22064e-05
4.49399e-05
4.16208e-05
4.86346e-05
4.87331e-05
5.31921e-05
5.24574e-05
5.39711e-05
5.1845e-05
5.32613e-05
5.18729e-05
4.86504e-05
4.80542e-05
4.59252e-05
4.06174e-05
4.36256e-05
3.3411e-05
3.78034e-05
2.02013e-05
2.97126e-05
1.98793e-05
3.27901e-05
3.26703e-05
4.13939e-05
4.44993e-05
4.98302e-05
4.99783e-05
5.33126e-05
4.93971e-05
5.1389e-05
4.94916e-05
4.53187e-05
4.45504e-05
4.12351e-05
3.36549e-05
3.67766e-05
2.45305e-05
3.42975e-05
2.36506e-05
3.90324e-05
3.1571e-05
4.24039e-05
4.09984e-05
4.53558e-05
4.72087e-05
5.03749e-05
4.88378e-05
5.27578e-05
4.85331e-05
5.12555e-05
4.86336e-05
4.50133e-05
4.57446e-05
4.30221e-05
3.61402e-05
4.23097e-05
2.93244e-05
3.89263e-05
2.27301e-05
3.49683e-05
2.59239e-05
3.64756e-05
3.74579e-05
4.23849e-05
4.60578e-05
4.88428e-05
4.77721e-05
5.13289e-05
4.59256e-05
4.97943e-05
4.65809e-05
4.27376e-05
4.31943e-05
4.08543e-05
3.17887e-05
3.91477e-05
2.48623e-05
3.75735e-05
2.41567e-05
3.9881e-05
3.06286e-05
4.08453e-05
4.09174e-05
4.31993e-05
4.68781e-05
4.80802e-05
4.63898e-05
5.25796e-05
4.49235e-05
5.05545e-05
4.72186e-05
4.20507e-05
4.42881e-05
4.17523e-05
3.29577e-05
4.2704e-05
2.66547e-05
4.09208e-05
2.38711e-05
3.89298e-05
2.89559e-05
3.91732e-05
4.10676e-05
4.17119e-05
4.76355e-05
4.87708e-05
4.57267e-05
5.0764e-05
4.23016e-05
4.91131e-05
4.46325e-05
3.95483e-05
4.31308e-05
4.02516e-05
2.92067e-05
4.17842e-05
2.27441e-05
4.09499e-05
2.26425e-05
4.09109e-05
2.9447e-05
3.93655e-05
4.17084e-05
4.07993e-05
4.71491e-05
4.63483e-05
4.33236e-05
5.25747e-05
4.20281e-05
5.08937e-05
4.53726e-05
3.92735e-05
4.45217e-05
4.09478e-05
2.92795e-05
4.44067e-05
2.36043e-05
4.37382e-05
2.30893e-05
4.24978e-05
2.94383e-05
4.01312e-05
4.34578e-05
4.07835e-05
4.93191e-05
4.76429e-05
4.35837e-05
5.1342e-05
3.72567e-05
4.94725e-05
4.35491e-05
3.46622e-05
4.41868e-05
3.95534e-05
2.48956e-05
4.43221e-05
1.88145e-05
4.40347e-05
1.94528e-05
4.25579e-05
2.673e-05
3.75771e-05
4.32335e-05
3.68094e-05
4.79151e-05
4.50719e-05
3.87788e-05
5.30388e-05
3.78317e-05
5.21923e-05
4.37527e-05
3.53805e-05
4.61385e-05
3.99862e-05
2.42985e-05
4.76289e-05
1.85503e-05
4.76332e-05
1.94179e-05
4.5726e-05
2.71911e-05
3.99416e-05
4.52881e-05
3.78922e-05
5.12776e-05
4.60952e-05
4.0311e-05
5.19216e-05
3.08543e-05
5.14717e-05
4.1307e-05
2.80848e-05
4.67919e-05
3.84067e-05
1.74679e-05
4.79916e-05
1.16068e-05
4.80006e-05
1.30536e-05
4.49355e-05
2.12183e-05
3.50461e-05
4.42916e-05
3.12749e-05
4.97271e-05
4.22311e-05
3.28742e-05
5.45393e-05
3.14328e-05
5.46998e-05
4.15996e-05
2.83851e-05
4.93315e-05
3.83983e-05
1.71448e-05
5.14089e-05
1.12071e-05
5.16559e-05
1.29692e-05
4.85705e-05
2.13977e-05
3.84354e-05
4.73583e-05
3.22525e-05
5.36445e-05
4.34995e-05
3.42091e-05
5.39134e-05
1.89988e-05
5.66145e-05
3.89418e-05
1.53132e-05
5.31552e-05
3.67841e-05
3.01761e-06
5.48297e-05
-2.11992e-06
5.4725e-05
1.85844e-07
4.95611e-05
9.31828e-06
3.05842e-05
4.69593e-05
2.00979e-05
5.38816e-05
3.86582e-05
2.19961e-05
5.59738e-05
2.06488e-05
5.92981e-05
3.7378e-05
1.67832e-05
5.55076e-05
3.49497e-05
4.40397e-06
5.67901e-05
-1.33451e-06
5.66912e-05
1.12934e-06
5.17429e-05
1.01794e-05
3.47046e-05
4.85146e-05
2.1758e-05
5.70675e-05
3.80237e-05
2.41618e-05
5.93011e-05
-3.86795e-06
6.96282e-05
3.23151e-05
-1.2017e-05
6.95858e-05
3.15407e-05
-2.65417e-05
6.80937e-05
-2.93316e-05
6.68121e-05
-2.5902e-05
5.86404e-05
-1.61495e-05
2.25353e-05
5.28655e-05
-2.35541e-06
6.44903e-05
3.01134e-05
-5.58683e-07
-0.0134433
-0.0128941
-0.0124444
-0.0121163
-0.0119239
-0.0118961
-0.0120497
-0.0123631
-0.0128257
-0.013402
-0.0140564
-0.0147207
-0.0153133
-0.0157395
-0.0159343
-0.0159053
-0.0156655
-0.015236
-0.0146749
-0.0140548
0.0019622
0.00201934
0.00195289
0.00181859
0.00166158
0.00154627
0.00141038
0.00123575
0.001001
0.00071573
0.000368596
1.21151e-07
-0.000313374
-0.000487964
-0.000443651
-0.000131286
0.000347959
0.000883458
0.00137636
0.00174947
-0.0027272
-0.0024175
-0.00219825
-0.00205977
-0.0020427
-0.00214717
-0.00234113
-0.00257777
-0.00290955
-0.00330514
-0.00380485
-0.00432913
-0.00477518
-0.00501828
-0.00504982
-0.00486953
-0.00450932
-0.00403432
-0.00354663
-0.00310259
0.0033715
0.0034504
0.00347055
0.00347549
0.00345448
0.00341219
0.00328803
0.00313454
0.00285811
0.00252293
0.00200743
0.00145148
0.00101921
0.000879217
0.00112703
0.00157194
0.00211994
0.00260961
0.00298031
0.00322893
-0.000282474
-0.000122059
-4.94451e-05
-1.11541e-05
-7.03267e-05
-0.000109224
-0.000216842
-0.000327545
-0.000591137
-0.000939093
-0.0015773
-0.00229178
-0.00282694
-0.00303963
-0.00291318
-0.00251772
-0.0019518
-0.00138145
-0.000894518
-0.000527183
0.00246193
0.00258263
0.00263994
0.00268814
0.00266616
0.00263398
0.00250376
0.00236836
0.00205985
0.00167403
0.000919635
0.000185425
-0.000252511
-0.000203804
0.000198054
0.00075193
0.00128796
0.00172374
0.00205718
0.00229962
0.000286028
0.000345494
0.000353967
0.000357685
0.000326736
0.000335793
0.00026885
0.000209048
-4.3684e-05
-0.000417101
-0.00128106
-0.0021108
-0.0025416
-0.00246354
-0.00197468
-0.00134659
-0.0007588
-0.000318395
-1.08868e-05
0.000181751
0.00157156
0.00166129
0.00170206
0.00173954
0.00170326
0.00167398
0.00155892
0.00143977
0.00114728
0.000730034
-0.00018266
-0.000933736
-0.00115729
-0.000831337
-0.000260563
0.000280782
0.00073844
0.0010581
0.00129398
0.00145829
0.000364561
0.000387559
0.000378656
0.000383261
0.000368323
0.000384384
0.00033574
0.000289186
7.39839e-05
-0.000305495
-0.0012486
-0.00201976
-0.00215006
-0.00172976
-0.00109191
-0.000574543
-0.000170111
7.42427e-05
0.000235657
0.000323175
0.000958437
0.00101193
0.00103278
0.00105027
0.00101872
0.000993144
0.000904948
0.00081037
0.000583302
0.000210431
-0.000662327
-0.00126495
-0.0011694
-0.000723712
-0.000174487
0.000201745
0.00049512
0.000667977
0.000803143
0.00089264
0.000324625
0.000337549
0.000329472
0.000338412
0.000327242
0.00034079
0.000305734
0.000282949
0.000134604
-0.000131085
-0.000933967
-0.00154413
-0.00136883
-0.000942443
-0.00045273
-0.000160713
6.59159e-05
0.000178087
0.000263042
0.000303553
0.000581147
0.000610302
0.000618338
0.000625894
0.000599861
0.000580514
0.000517402
0.000457645
0.000311982
8.73996e-05
-0.000569388
-0.000896944
-0.000679751
-0.000314039
3.57944e-05
0.000210794
0.00036041
0.000430638
0.000502062
0.000545157
0.000262897
0.000273917
0.00027042
0.000280424
0.000271301
0.000285045
0.000263133
0.000279377
0.000207611
0.000173598
-0.000367306
-0.000781115
-0.000609061
-0.00038406
-0.000115804
3.47561e-07
0.000121461
0.000169527
0.000222932
0.000246161
0.000361227
0.000377071
0.000378689
0.000382226
0.000360561
0.000346949
0.000301392
0.000272389
0.000198005
0.000147057
-0.000186652
-0.000316089
-0.000178803
-2.20412e-05
0.00013822
0.000181492
0.000254601
0.000277211
0.000319286
0.000340224
0.000206034
0.000216437
0.000216268
0.000225522
0.000218233
0.000231878
0.000220181
0.000262215
0.000255121
0.000425456
0.000208957
-0.000222589
-0.000188794
-0.00015827
-3.51524e-05
1.09534e-05
9.6887e-05
0.000127243
0.000171489
0.000189795
0.00023666
0.000245887
0.000244982
0.000246646
0.000228617
0.000218186
0.000182254
0.000166058
0.000120999
0.000188961
0.000275217
-2.73511e-05
-3.81787e-05
-2.30498e-05
7.20549e-05
9.17712e-05
0.000157026
0.000174477
0.000208924
0.000222186
0.000161793
0.000170611
0.000171716
0.000178986
0.000172887
0.000182694
0.000173775
0.000200418
0.00018103
0.000241131
0.000135183
-8.45138e-05
-6.57185e-05
-8.93747e-05
-5.0716e-06
9.60906e-06
7.41879e-05
9.52839e-05
0.000132274
0.000147052
0.00016749
0.00017284
0.000171206
0.00017185
0.000157273
0.000148626
0.00012078
0.000105062
7.45354e-05
7.5451e-05
9.95646e-05
-2.95808e-06
3.31236e-05
2.22705e-05
8.00744e-05
7.79946e-05
0.00012007
0.000125748
0.000150046
0.000157414
0.000130467
0.000136858
0.000137963
0.00014286
0.000137429
0.000143088
0.000136368
0.000148743
0.000135666
0.000144179
8.79806e-05
-3.11365e-05
-1.48261e-05
-4.50994e-05
1.27332e-05
1.72783e-05
6.51128e-05
7.87588e-05
0.000107576
0.000118297
0.000128619
0.000131537
0.000129981
0.000129966
0.000118531
0.000111466
9.06411e-05
7.59007e-05
5.39952e-05
4.00902e-05
5.03111e-05
1.185e-05
5.22727e-05
3.84918e-05
7.94951e-05
7.08316e-05
9.95408e-05
0.000100058
0.000117383
0.000121299
0.000109536
0.000113333
0.00011405
0.000116797
0.000111535
0.00011405
0.000108502
0.000112117
0.000104768
9.76649e-05
7.01613e-05
-2.35332e-06
1.01635e-05
-1.60414e-05
2.51842e-05
2.62354e-05
6.18052e-05
7.08813e-05
9.2746e-05
9.9828e-05
0.000106244
0.00010739
0.000106324
0.000105829
9.69551e-05
9.15133e-05
7.6435e-05
6.35745e-05
4.93612e-05
3.33664e-05
4.06815e-05
2.24017e-05
5.73364e-05
4.45667e-05
7.50397e-05
6.61303e-05
8.6732e-05
8.58964e-05
9.86476e-05
0.000100615
9.62161e-05
9.74976e-05
9.80632e-05
9.90066e-05
9.38427e-05
9.42352e-05
8.92352e-05
8.76344e-05
8.46142e-05
7.24646e-05
6.18371e-05
1.4571e-05
2.65012e-05
6.0738e-06
3.64309e-05
3.61019e-05
6.20361e-05
6.82456e-05
8.43437e-05
8.84865e-05
9.33886e-05
9.27062e-05
9.24213e-05
9.13723e-05
8.41441e-05
8.0134e-05
7.01965e-05
5.85793e-05
5.12802e-05
3.56358e-05
4.33304e-05
2.99482e-05
5.82215e-05
4.63661e-05
7.02012e-05
6.33671e-05
7.84771e-05
7.814e-05
8.77152e-05
8.82466e-05
8.81275e-05
8.69537e-05
8.7918e-05
8.74935e-05
8.21994e-05
8.15881e-05
7.70157e-05
7.19392e-05
7.23717e-05
5.85631e-05
5.79577e-05
2.56105e-05
3.88483e-05
2.3027e-05
4.61015e-05
4.55131e-05
6.36517e-05
6.8346e-05
7.98655e-05
8.15335e-05
8.59965e-05
8.33523e-05
8.41638e-05
8.23108e-05
7.61097e-05
7.37884e-05
6.67918e-05
5.62166e-05
5.52657e-05
3.88728e-05
4.91413e-05
3.46862e-05
5.8418e-05
4.7431e-05
6.63306e-05
6.22534e-05
7.32535e-05
7.42359e-05
8.12073e-05
8.06049e-05
8.31736e-05
8.00124e-05
8.20034e-05
7.99603e-05
7.49142e-05
7.4083e-05
7.02978e-05
6.22817e-05
6.59783e-05
5.08305e-05
5.75339e-05
3.32061e-05
4.83818e-05
3.47063e-05
5.35158e-05
5.31709e-05
6.54497e-05
6.9769e-05
7.72579e-05
7.73613e-05
8.20067e-05
7.65396e-05
7.94152e-05
7.66451e-05
7.05564e-05
6.97493e-05
6.4804e-05
5.41506e-05
5.86535e-05
4.10114e-05
5.44107e-05
3.77937e-05
5.94216e-05
4.81823e-05
6.42858e-05
6.26682e-05
6.95922e-05
7.27098e-05
7.74771e-05
7.55511e-05
8.11422e-05
7.4912e-05
7.8901e-05
7.51253e-05
6.95612e-05
7.0629e-05
6.6384e-05
5.62196e-05
6.47577e-05
4.58912e-05
5.98681e-05
3.70349e-05
5.5568e-05
4.25891e-05
5.8222e-05
5.94456e-05
6.64017e-05
7.17036e-05
7.56402e-05
7.39781e-05
7.93823e-05
7.13915e-05
7.70593e-05
7.24179e-05
6.64952e-05
6.76136e-05
6.38207e-05
5.0994e-05
6.16448e-05
4.08311e-05
5.90878e-05
3.89181e-05
6.15508e-05
4.80218e-05
6.31196e-05
6.35757e-05
6.70605e-05
7.27114e-05
7.45598e-05
7.20034e-05
8.06758e-05
6.96556e-05
7.77693e-05
7.27313e-05
6.51541e-05
6.866e-05
6.45899e-05
5.16452e-05
6.57908e-05
4.23203e-05
6.32585e-05
3.85999e-05
6.10966e-05
4.64675e-05
6.15592e-05
6.42877e-05
6.53261e-05
7.38233e-05
7.51824e-05
7.08583e-05
7.86485e-05
6.6108e-05
7.61607e-05
6.95459e-05
6.17993e-05
6.73946e-05
6.28006e-05
4.69434e-05
6.52227e-05
3.76037e-05
6.39571e-05
3.71251e-05
6.37563e-05
4.69447e-05
6.17509e-05
6.53e-05
6.39733e-05
7.34797e-05
7.2288e-05
6.77028e-05
8.06868e-05
6.50818e-05
7.81966e-05
7.00503e-05
6.0803e-05
6.90294e-05
6.3401e-05
4.62451e-05
6.85269e-05
3.7848e-05
6.76279e-05
3.7257e-05
6.60631e-05
4.68133e-05
6.2645e-05
6.76697e-05
6.36048e-05
7.61723e-05
7.35158e-05
6.74261e-05
7.93862e-05
5.90139e-05
7.6798e-05
6.77157e-05
5.49493e-05
6.88881e-05
6.16965e-05
4.05673e-05
6.89701e-05
3.17914e-05
6.86239e-05
3.26761e-05
6.65796e-05
4.33775e-05
5.96715e-05
6.76886e-05
5.86497e-05
7.48812e-05
7.0364e-05
6.1451e-05
8.13957e-05
5.86762e-05
8.00878e-05
6.76066e-05
5.47595e-05
7.14092e-05
6.19692e-05
3.87982e-05
7.32091e-05
3.04238e-05
7.33014e-05
3.18039e-05
7.06141e-05
4.32573e-05
6.20942e-05
7.03278e-05
5.91338e-05
7.89622e-05
7.1162e-05
6.23044e-05
8.02874e-05
4.98898e-05
7.96872e-05
6.45194e-05
4.56081e-05
7.26365e-05
5.99821e-05
3.00174e-05
7.42872e-05
2.15319e-05
7.44379e-05
2.37064e-05
7.02024e-05
3.57208e-05
5.63516e-05
6.94578e-05
5.09032e-05
7.7595e-05
6.64025e-05
5.31233e-05
8.34093e-05
4.91435e-05
8.38223e-05
6.43982e-05
4.44558e-05
7.61598e-05
5.9651e-05
2.7996e-05
7.88679e-05
1.94723e-05
7.93286e-05
2.21725e-05
7.48067e-05
3.46467e-05
5.96557e-05
7.32232e-05
5.07783e-05
8.24429e-05
6.72747e-05
5.33375e-05
8.28876e-05
3.40041e-05
8.66039e-05
6.09641e-05
2.85267e-05
8.12647e-05
5.75141e-05
1.07254e-05
8.34927e-05
3.10884e-06
8.35355e-05
6.52758e-06
7.63849e-05
1.98614e-05
5.0424e-05
7.29871e-05
3.60402e-05
8.31669e-05
6.12056e-05
3.85535e-05
8.5494e-05
3.41022e-05
9.04579e-05
5.86685e-05
2.81998e-05
8.49949e-05
5.50376e-05
1.00945e-05
8.66805e-05
1.91158e-06
8.67021e-05
5.63378e-06
7.94886e-05
1.89991e-05
5.4354e-05
7.51563e-05
3.62491e-05
8.74187e-05
5.97961e-05
3.9311e-05
8.91535e-05
6.28981e-06
0.000102524
5.26165e-05
-4.39342e-06
0.000101471
5.09856e-05
-2.4946e-05
9.98859e-05
-2.98721e-05
9.8534e-05
-2.5035e-05
8.74e-05
-1.09262e-05
4.04193e-05
8.00663e-05
8.9346e-06
9.59285e-05
5.02935e-05
1.14034e-05
-0.01485
-0.0142244
-0.0137099
-0.0133341
-0.0131196
-0.0131026
-0.0132906
-0.0136614
-0.0142013
-0.014868
-0.0156172
-0.0163699
-0.0170335
-0.0175038
-0.0177113
-0.0176646
-0.0173797
-0.016885
-0.0162464
-0.0155435
0.00145382
0.00156263
0.0015329
0.00141937
0.00127199
0.00114827
0.000971915
0.000739586
0.00042905
5.6133e-05
-0.00038494
-0.000841657
-0.0012229
-0.00143237
-0.00137961
-0.0010234
-0.000475536
0.000143436
0.000722237
0.00117457
-0.00307683
-0.00271912
-0.00247712
-0.0023356
-0.00234331
-0.00248159
-0.00272351
-0.00302522
-0.00344123