/*--------------------------------*- C++ -*----------------------------------*\
| =========                 |                                                 |
| \\      /  F ield         | OpenFOAM: The Open Source CFD Toolbox           |
|  \\    /   O peration     | Version:  2.4.0                                 |
|   \\  /    A nd           | Web:      www.OpenFOAM.org                      |
|    \\/     M anipulation  |                                                 |
\*---------------------------------------------------------------------------*/
FoamFile
{
    version     2.0;
    format      ascii;
    class       volScalarField;
    location    "570";
    object      epsilon;
}
// * * * * * * * * * * * * * * * * * * * * * * * * * * * * * * * * * * * * * //

dimensions      [0 2 -3 0 0 0 0];

internalField   nonuniform List<scalar> 
283312
(
2.57971e-05
2.29368e-05
2.15789e-05
2.20135e-05
2.40127e-05
2.7012e-05
3.03373e-05
3.34755e-05
3.61823e-05
3.83728e-05
4.00048e-05
4.10389e-05
4.1463e-05
4.13298e-05
4.07245e-05
3.96815e-05
3.81483e-05
3.59745e-05
3.3028e-05
2.94402e-05
2.30451e-05
2.63024e-05
3.04675e-05
3.4492e-05
3.76361e-05
3.96988e-05
4.09048e-05
4.15889e-05
4.197e-05
4.212e-05
4.19366e-05
4.12276e-05
3.98844e-05
3.79261e-05
3.53909e-05
3.22009e-05
2.85158e-05
2.49412e-05
2.23712e-05
2.16059e-05
3.18749e-05
3.48967e-05
3.69734e-05
3.82567e-05
3.89906e-05
3.93554e-05
3.95151e-05
3.95868e-05
3.96319e-05
3.97661e-05
3.97025e-05
3.87255e-05
3.63523e-05
3.27094e-05
2.8412e-05
2.45042e-05
2.21664e-05
2.21402e-05
2.43728e-05
2.79785e-05
3.45716e-05
3.59701e-05
3.67483e-05
3.71159e-05
3.72592e-05
3.73303e-05
3.74247e-05
3.75644e-05
3.78257e-05
3.91947e-05
4.09735e-05
4.08609e-05
3.76358e-05
3.21919e-05
2.68614e-05
2.37592e-05
2.36511e-05
2.59302e-05
2.92205e-05
3.22745e-05
3.54407e-05
3.59655e-05
3.61937e-05
3.6287e-05
3.63539e-05
3.64296e-05
3.65468e-05
3.67119e-05
3.72666e-05
4.0896e-05
4.53797e-05
4.62645e-05
4.2343e-05
3.60295e-05
3.05521e-05
2.80523e-05
2.84856e-05
3.04995e-05
3.27111e-05
3.43963e-05
3.54585e-05
3.56298e-05
3.56873e-05
3.5707e-05
3.57438e-05
3.58108e-05
3.59324e-05
3.61073e-05
3.67829e-05
4.14335e-05
4.68241e-05
4.78383e-05
4.30365e-05
3.60189e-05
3.11977e-05
2.9928e-05
3.09812e-05
3.2709e-05
3.41421e-05
3.50223e-05
3.52894e-05
3.53234e-05
3.53404e-05
3.53674e-05
3.54215e-05
3.54957e-05
3.56115e-05
3.57755e-05
3.64098e-05
3.94289e-05
4.31614e-05
4.52196e-05
4.31621e-05
3.75498e-05
3.34147e-05
3.23958e-05
3.31196e-05
3.41225e-05
3.48122e-05
3.51539e-05
3.51365e-05
3.51396e-05
3.51473e-05
3.51653e-05
3.52042e-05
3.52645e-05
3.53601e-05
3.55046e-05
3.5761e-05
3.49304e-05
3.3692e-05
3.24375e-05
3.17399e-05
3.143e-05
3.17256e-05
3.2781e-05
3.38992e-05
3.46272e-05
3.49745e-05
3.50996e-05
3.50069e-05
3.50114e-05
3.50237e-05
3.50473e-05
3.50843e-05
3.51383e-05
3.52148e-05
3.53426e-05
3.55512e-05
3.40629e-05
3.13751e-05
2.76677e-05
2.60458e-05
2.76869e-05
3.0423e-05
3.26962e-05
3.4052e-05
3.46835e-05
3.49204e-05
3.49898e-05
3.49368e-05
3.49427e-05
3.49527e-05
3.49699e-05
3.49965e-05
3.50387e-05
3.50979e-05
3.52075e-05
3.53795e-05
3.37189e-05
3.11986e-05
2.72604e-05
2.55604e-05
2.75094e-05
3.0606e-05
3.29204e-05
3.41583e-05
3.46858e-05
3.48709e-05
3.49235e-05
3.48916e-05
3.48983e-05
3.49084e-05
3.49243e-05
3.49461e-05
3.49797e-05
3.50243e-05
3.51131e-05
3.5245e-05
3.3449e-05
3.11133e-05
2.70978e-05
2.59204e-05
2.82639e-05
3.12487e-05
3.32715e-05
3.42868e-05
3.47005e-05
3.48409e-05
3.48806e-05
3.48665e-05
3.4872e-05
3.48796e-05
3.48914e-05
3.49074e-05
3.49326e-05
3.49674e-05
3.50374e-05
3.51543e-05
3.32442e-05
3.15149e-05
2.80544e-05
2.72164e-05
2.94259e-05
3.19692e-05
3.36077e-05
3.44048e-05
3.47224e-05
3.48283e-05
3.4858e-05
3.48494e-05
3.48545e-05
3.48611e-05
3.48708e-05
3.48834e-05
3.49021e-05
3.49281e-05
3.49784e-05
3.50725e-05
3.32846e-05
3.10783e-05
2.70405e-05
2.68233e-05
2.95047e-05
3.21073e-05
3.3682e-05
3.44251e-05
3.47168e-05
3.48136e-05
3.48413e-05
3.48379e-05
3.48422e-05
3.48473e-05
3.48547e-05
3.48641e-05
3.48777e-05
3.48972e-05
3.49326e-05
3.5043e-05
3.36523e-05
3.24385e-05
2.8721e-05
2.80863e-05
3.01982e-05
3.24071e-05
3.37858e-05
3.44502e-05
3.47152e-05
3.48044e-05
3.48303e-05
3.483e-05
3.48334e-05
3.48375e-05
3.48433e-05
3.48508e-05
3.48608e-05
3.48753e-05
3.48994e-05
3.49945e-05
3.32437e-05
3.05868e-05
2.70793e-05
2.75891e-05
3.02247e-05
3.25101e-05
3.38496e-05
3.44753e-05
3.47196e-05
3.48005e-05
3.48235e-05
3.48238e-05
3.48261e-05
3.48292e-05
3.48337e-05
3.48394e-05
3.48468e-05
3.48553e-05
3.48673e-05
3.48754e-05
3.1647e-05
2.59175e-05
2.37553e-05
2.60869e-05
2.97545e-05
3.24875e-05
3.39202e-05
3.45233e-05
3.47375e-05
3.48026e-05
3.48195e-05
3.48197e-05
3.48204e-05
3.48225e-05
3.4826e-05
3.48307e-05
3.48367e-05
3.48435e-05
3.4852e-05
3.48569e-05
3.45717e-05
3.43617e-05
3.44241e-05
3.45946e-05
3.47083e-05
3.47526e-05
3.47909e-05
3.4814e-05
3.48218e-05
3.4822e-05
3.48204e-05
3.48146e-05
3.48148e-05
3.48163e-05
3.48191e-05
3.48228e-05
3.48277e-05
3.48329e-05
3.48394e-05
3.48461e-05
3.48425e-05
3.48368e-05
3.48369e-05
3.48424e-05
3.48443e-05
3.48411e-05
3.48349e-05
3.48284e-05
3.48227e-05
3.48184e-05
3.48157e-05
3.481e-05
3.48099e-05
3.4811e-05
3.48131e-05
3.48162e-05
3.48202e-05
3.48244e-05
3.48292e-05
3.48328e-05
3.4836e-05
3.48348e-05
3.48346e-05
3.48371e-05
3.48367e-05
3.48339e-05
3.48288e-05
3.48233e-05
3.48181e-05
3.48141e-05
3.48114e-05
3.48055e-05
3.48053e-05
3.4806e-05
3.48077e-05
3.48101e-05
3.48135e-05
3.48171e-05
3.48214e-05
3.4825e-05
3.48278e-05
3.48276e-05
3.4827e-05
3.48278e-05
3.48273e-05
3.48253e-05
3.48214e-05
3.48169e-05
3.48127e-05
3.48093e-05
3.48069e-05
3.48015e-05
3.4801e-05
3.48014e-05
3.48027e-05
3.48047e-05
3.48075e-05
3.48106e-05
3.4814e-05
3.48168e-05
3.48193e-05
3.48197e-05
3.48202e-05
3.48213e-05
3.4821e-05
3.48192e-05
3.48159e-05
3.48121e-05
3.48084e-05
3.48052e-05
3.48029e-05
3.47976e-05
3.4797e-05
3.47972e-05
3.47982e-05
3.47999e-05
3.48022e-05
3.48049e-05
3.4808e-05
3.48106e-05
3.4813e-05
3.48138e-05
3.48141e-05
3.48146e-05
3.48142e-05
3.48127e-05
3.48101e-05
3.4807e-05
3.48038e-05
3.48011e-05
3.4799e-05
3.4794e-05
3.47934e-05
3.47934e-05
3.47941e-05
3.47954e-05
3.47974e-05
3.47996e-05
3.48023e-05
3.48045e-05
3.48067e-05
3.48077e-05
3.48085e-05
3.48092e-05
3.4809e-05
3.48077e-05
3.48055e-05
3.48028e-05
3.48e-05
3.47974e-05
3.47954e-05
3.47907e-05
3.47899e-05
3.47898e-05
3.47903e-05
3.47914e-05
3.47931e-05
3.47951e-05
3.47974e-05
3.47995e-05
3.48016e-05
3.48026e-05
3.48034e-05
3.48039e-05
3.48036e-05
3.48027e-05
3.48008e-05
3.47985e-05
3.47961e-05
3.47939e-05
3.4792e-05
3.47876e-05
3.47868e-05
3.47866e-05
3.47869e-05
3.47878e-05
3.47892e-05
3.47909e-05
3.47929e-05
3.47948e-05
3.47967e-05
3.47978e-05
3.47987e-05
3.47994e-05
3.47993e-05
3.47984e-05
3.47968e-05
3.47948e-05
3.47927e-05
3.47906e-05
3.47889e-05
3.47847e-05
3.47839e-05
3.47836e-05
3.47838e-05
3.47845e-05
3.47857e-05
3.47872e-05
3.4789e-05
3.47908e-05
3.47925e-05
3.47936e-05
3.47945e-05
3.47951e-05
3.4795e-05
3.47943e-05
3.4793e-05
3.47913e-05
3.47894e-05
3.47876e-05
3.4786e-05
3.47821e-05
3.47813e-05
3.47809e-05
3.4781e-05
3.47815e-05
3.47826e-05
3.47838e-05
3.47855e-05
3.4787e-05
3.47886e-05
3.47898e-05
3.47907e-05
3.47913e-05
3.47914e-05
3.47908e-05
3.47897e-05
3.47882e-05
3.47865e-05
3.47848e-05
3.47833e-05
3.47797e-05
3.47789e-05
3.47785e-05
3.47785e-05
3.47789e-05
3.47798e-05
3.47809e-05
3.47824e-05
3.47838e-05
3.47853e-05
3.47864e-05
3.47873e-05
3.47879e-05
3.4788e-05
3.47875e-05
3.47866e-05
3.47853e-05
3.47838e-05
3.47823e-05
3.47809e-05
3.47776e-05
3.47768e-05
3.47763e-05
3.47762e-05
3.47765e-05
3.47773e-05
3.47782e-05
3.47796e-05
3.47808e-05
3.47822e-05
3.47833e-05
3.47842e-05
3.47848e-05
3.4785e-05
3.47847e-05
3.47839e-05
3.47827e-05
3.47814e-05
3.478e-05
3.47787e-05
3.47757e-05
3.47749e-05
3.47744e-05
3.47742e-05
3.47744e-05
3.47751e-05
3.47759e-05
3.47771e-05
3.47783e-05
3.47796e-05
3.47806e-05
3.47815e-05
3.47821e-05
3.47823e-05
3.47821e-05
3.47814e-05
3.47804e-05
3.47792e-05
3.47779e-05
3.47767e-05
3.47739e-05
3.47731e-05
3.47726e-05
3.47724e-05
3.47726e-05
3.47731e-05
3.47738e-05
3.47749e-05
3.4776e-05
3.47772e-05
3.47782e-05
3.47791e-05
3.47797e-05
3.478e-05
3.47798e-05
3.47792e-05
3.47783e-05
3.47772e-05
3.4776e-05
3.47749e-05
3.47724e-05
3.47716e-05
3.47711e-05
3.47709e-05
3.4771e-05
3.47714e-05
3.4772e-05
3.4773e-05
3.47741e-05
3.47752e-05
3.47762e-05
3.4777e-05
3.47776e-05
3.47779e-05
3.47778e-05
3.47773e-05
3.47765e-05
3.47755e-05
3.47744e-05
3.47734e-05
3.47711e-05
3.47703e-05
3.47698e-05
3.47695e-05
3.47695e-05
3.47699e-05
3.47705e-05
3.47714e-05
3.47723e-05
3.47734e-05
3.47744e-05
3.47752e-05
3.47758e-05
3.47761e-05
3.47761e-05
3.47756e-05
3.47749e-05
3.4774e-05
3.4773e-05
3.4772e-05
3.47699e-05
3.47692e-05
3.47686e-05
3.47683e-05
3.47683e-05
3.47686e-05
3.47691e-05
3.477e-05
3.47709e-05
3.47719e-05
3.47728e-05
3.47737e-05
3.47743e-05
3.47746e-05
3.47746e-05
3.47742e-05
3.47736e-05
3.47728e-05
3.47718e-05
3.47708e-05
3.47689e-05
3.47682e-05
3.47676e-05
3.47673e-05
3.47673e-05
3.47675e-05
3.4768e-05
3.47688e-05
3.47696e-05
3.47706e-05
3.47715e-05
3.47723e-05
3.47729e-05
3.47733e-05
3.47733e-05
3.4773e-05
3.47724e-05
3.47716e-05
3.47707e-05
3.47698e-05
3.47682e-05
3.47675e-05
3.47669e-05
3.47665e-05
3.47665e-05
3.47667e-05
3.47671e-05
3.47678e-05
3.47686e-05
3.47696e-05
3.47705e-05
3.47713e-05
3.47719e-05
3.47722e-05
3.47723e-05
3.4772e-05
3.47715e-05
3.47708e-05
3.47699e-05
3.4769e-05
3.47675e-05
3.47668e-05
3.47662e-05
3.47658e-05
3.47657e-05
3.47659e-05
3.47663e-05
3.4767e-05
3.47678e-05
3.47687e-05
3.47696e-05
3.47704e-05
3.4771e-05
3.47713e-05
3.47715e-05
3.47712e-05
3.47707e-05
3.477e-05
3.47691e-05
3.47683e-05
3.47671e-05
3.47664e-05
3.47658e-05
3.47654e-05
3.47653e-05
3.47655e-05
3.47658e-05
3.47665e-05
3.47672e-05
3.47682e-05
3.4769e-05
3.47698e-05
3.47704e-05
3.47708e-05
3.47709e-05
3.47707e-05
3.47702e-05
3.47696e-05
3.47687e-05
3.47679e-05
3.47668e-05
3.47661e-05
3.47656e-05
3.47651e-05
3.4765e-05
3.47652e-05
3.47655e-05
3.47662e-05
3.47669e-05
3.47678e-05
3.47686e-05
3.47694e-05
3.477e-05
3.47704e-05
3.47706e-05
3.47703e-05
3.47699e-05
3.47692e-05
3.47684e-05
3.47677e-05
3.4799e-05
3.48045e-05
3.47972e-05
3.47956e-05
3.4804e-05
3.47975e-05
3.47963e-05
3.48075e-05
3.47999e-05
3.48109e-05
3.48019e-05
3.48135e-05
3.48036e-05
3.48144e-05
3.4817e-05
3.48038e-05
3.48118e-05
3.48018e-05
3.47992e-05
3.48072e-05
2.5639e-05
2.29481e-05
2.19585e-05
2.28408e-05
2.52432e-05
2.85281e-05
3.19881e-05
3.51631e-05
3.78567e-05
4.00081e-05
4.15811e-05
4.25353e-05
4.28585e-05
4.26071e-05
4.18738e-05
4.06749e-05
3.89341e-05
3.64834e-05
3.32193e-05
2.93708e-05
2.40749e-05
2.7727e-05
3.20931e-05
3.6117e-05
3.91486e-05
4.10826e-05
4.2212e-05
4.2862e-05
4.32323e-05
4.33863e-05
4.32083e-05
4.24813e-05
4.10737e-05
3.89898e-05
3.62491e-05
3.27828e-05
2.88288e-05
2.51232e-05
2.26545e-05
2.22163e-05
3.32474e-05
3.62486e-05
3.82735e-05
3.95109e-05
4.02118e-05
4.05541e-05
4.07067e-05
4.07818e-05
4.08451e-05
4.10641e-05
4.11278e-05
4.01892e-05
3.76715e-05
3.37289e-05
2.91006e-05
2.50024e-05
2.27145e-05
2.29424e-05
2.54876e-05
2.93086e-05
3.58677e-05
3.72273e-05
3.79704e-05
3.83122e-05
3.84433e-05
3.85159e-05
3.8617e-05
3.87665e-05
3.90547e-05
4.07239e-05
4.29525e-05
4.29968e-05
3.94662e-05
3.3502e-05
2.78235e-05
2.46691e-05
2.47126e-05
2.71726e-05
3.0557e-05
3.36157e-05
3.66766e-05
3.71693e-05
3.73788e-05
3.74646e-05
3.75323e-05
3.7611e-05
3.77346e-05
3.79084e-05
3.85268e-05
4.29005e-05
4.83172e-05
4.94913e-05
4.51566e-05
3.81813e-05
3.21724e-05
2.94463e-05
2.98392e-05
3.18496e-05
3.40364e-05
3.56791e-05
3.66523e-05
3.68073e-05
3.68586e-05
3.6878e-05
3.69188e-05
3.69902e-05
3.71181e-05
3.73004e-05
3.80491e-05
4.36297e-05
5.00229e-05
5.11701e-05
4.56877e-05
3.78963e-05
3.26603e-05
3.12731e-05
3.23086e-05
3.40152e-05
3.54092e-05
3.62479e-05
3.64601e-05
3.64925e-05
3.65108e-05
3.65403e-05
3.65973e-05
3.66743e-05
3.67946e-05
3.69646e-05
3.76665e-05
4.13376e-05
4.58135e-05
4.81672e-05
4.56251e-05
3.92116e-05
3.46871e-05
3.35914e-05
3.43239e-05
3.53284e-05
3.60057e-05
3.63338e-05
3.63017e-05
3.63069e-05
3.63165e-05
3.63368e-05
3.63782e-05
3.64412e-05
3.65404e-05
3.66898e-05
3.69578e-05
3.61096e-05
3.48966e-05
3.36504e-05
3.29827e-05
3.26277e-05
3.28648e-05
3.392e-05
3.5054e-05
3.57906e-05
3.61398e-05
3.62649e-05
3.61743e-05
3.61804e-05
3.61942e-05
3.62194e-05
3.62579e-05
3.63139e-05
3.63928e-05
3.6525e-05
3.67414e-05
3.52173e-05
3.25257e-05
2.87158e-05
2.71314e-05
2.88454e-05
3.16083e-05
3.38806e-05
3.52293e-05
3.58547e-05
3.60884e-05
3.61569e-05
3.61052e-05
3.61118e-05
3.61227e-05
3.61411e-05
3.6169e-05
3.6213e-05
3.62741e-05
3.63875e-05
3.65652e-05
3.48789e-05
3.24114e-05
2.83619e-05
2.66725e-05
2.87245e-05
3.18575e-05
3.41519e-05
3.53605e-05
3.58681e-05
3.60435e-05
3.60925e-05
3.60606e-05
3.60677e-05
3.60785e-05
3.60954e-05
3.61181e-05
3.6153e-05
3.61989e-05
3.62908e-05
3.64264e-05
3.46145e-05
3.23655e-05
2.82253e-05
2.70815e-05
2.95272e-05
3.25296e-05
3.45165e-05
3.5494e-05
3.58846e-05
3.60144e-05
3.60504e-05
3.60354e-05
3.60412e-05
3.60494e-05
3.60619e-05
3.60787e-05
3.6105e-05
3.61409e-05
3.62132e-05
3.63336e-05
3.44087e-05
3.28561e-05
2.92904e-05
2.84515e-05
3.07188e-05
3.32521e-05
3.48472e-05
3.56073e-05
3.59042e-05
3.60009e-05
3.60275e-05
3.60184e-05
3.60237e-05
3.60307e-05
3.6041e-05
3.60542e-05
3.60736e-05
3.61005e-05
3.61524e-05
3.62495e-05
3.44671e-05
3.23864e-05
2.82171e-05
2.80446e-05
3.07907e-05
3.33818e-05
3.49153e-05
3.56245e-05
3.58974e-05
3.5986e-05
3.60108e-05
3.60068e-05
3.60112e-05
3.60166e-05
3.60245e-05
3.60345e-05
3.60487e-05
3.60688e-05
3.61053e-05
3.62202e-05
3.48776e-05
3.38799e-05
3.00056e-05
2.93512e-05
3.14912e-05
3.3678e-05
3.50154e-05
3.56476e-05
3.58949e-05
3.59765e-05
3.59998e-05
3.59987e-05
3.60022e-05
3.60066e-05
3.60128e-05
3.60207e-05
3.60312e-05
3.60462e-05
3.60711e-05
3.61703e-05
3.44388e-05
3.1872e-05
2.82652e-05
2.88324e-05
3.1511e-05
3.37754e-05
3.50752e-05
3.56705e-05
3.58984e-05
3.59723e-05
3.59929e-05
3.59923e-05
3.59948e-05
3.59981e-05
3.60029e-05
3.6009e-05
3.60167e-05
3.60256e-05
3.6038e-05
3.60459e-05
3.26585e-05
2.67234e-05
2.46596e-05
2.72226e-05
3.10105e-05
3.37435e-05
3.51399e-05
3.57146e-05
3.59142e-05
3.59735e-05
3.59885e-05
3.5988e-05
3.59888e-05
3.59912e-05
3.5995e-05
3.59999e-05
3.60062e-05
3.60132e-05
3.60221e-05
3.6027e-05
3.57313e-05
3.55242e-05
3.55972e-05
3.57719e-05
3.58828e-05
3.59259e-05
3.59629e-05
3.59842e-05
3.59906e-05
3.59903e-05
3.59886e-05
3.59827e-05
3.59831e-05
3.59848e-05
3.59878e-05
3.59918e-05
3.59968e-05
3.60023e-05
3.6009e-05
3.60159e-05
3.6012e-05
3.60062e-05
3.60064e-05
3.6012e-05
3.60136e-05
3.601e-05
3.60033e-05
3.59966e-05
3.59907e-05
3.59864e-05
3.59837e-05
3.5978e-05
3.5978e-05
3.59793e-05
3.59816e-05
3.59848e-05
3.5989e-05
3.59935e-05
3.59984e-05
3.60021e-05
3.60053e-05
3.60038e-05
3.60037e-05
3.60062e-05
3.60057e-05
3.60025e-05
3.59971e-05
3.59913e-05
3.5986e-05
3.5982e-05
3.59793e-05
3.59734e-05
3.59732e-05
3.59741e-05
3.59759e-05
3.59786e-05
3.59821e-05
3.59859e-05
3.59903e-05
3.5994e-05
3.59968e-05
3.59964e-05
3.59958e-05
3.59966e-05
3.5996e-05
3.59937e-05
3.59895e-05
3.59849e-05
3.59806e-05
3.59771e-05
3.59747e-05
3.59693e-05
3.59689e-05
3.59694e-05
3.59708e-05
3.5973e-05
3.59759e-05
3.59791e-05
3.59826e-05
3.59854e-05
3.5988e-05
3.59883e-05
3.59888e-05
3.59899e-05
3.59894e-05
3.59874e-05
3.59839e-05
3.598e-05
3.59762e-05
3.5973e-05
3.59706e-05
3.59653e-05
3.59647e-05
3.5965e-05
3.59661e-05
3.59679e-05
3.59704e-05
3.59732e-05
3.59764e-05
3.59791e-05
3.59815e-05
3.59822e-05
3.59825e-05
3.5983e-05
3.59824e-05
3.59808e-05
3.5978e-05
3.59748e-05
3.59715e-05
3.59687e-05
3.59666e-05
3.59616e-05
3.5961e-05
3.5961e-05
3.59619e-05
3.59633e-05
3.59654e-05
3.59677e-05
3.59705e-05
3.59727e-05
3.5975e-05
3.59759e-05
3.59767e-05
3.59774e-05
3.59771e-05
3.59757e-05
3.59733e-05
3.59704e-05
3.59676e-05
3.5965e-05
3.5963e-05
3.59581e-05
3.59574e-05
3.59574e-05
3.5958e-05
3.59591e-05
3.59609e-05
3.5963e-05
3.59654e-05
3.59676e-05
3.59697e-05
3.59707e-05
3.59714e-05
3.59719e-05
3.59716e-05
3.59705e-05
3.59685e-05
3.59661e-05
3.59636e-05
3.59613e-05
3.59594e-05
3.59549e-05
3.59542e-05
3.5954e-05
3.59544e-05
3.59554e-05
3.59569e-05
3.59586e-05
3.59608e-05
3.59627e-05
3.59646e-05
3.59657e-05
3.59666e-05
3.59672e-05
3.5967e-05
3.59661e-05
3.59644e-05
3.59623e-05
3.59601e-05
3.5958e-05
3.59562e-05
3.5952e-05
3.59512e-05
3.59509e-05
3.59512e-05
3.5952e-05
3.59532e-05
3.59548e-05
3.59567e-05
3.59585e-05
3.59602e-05
3.59613e-05
3.59622e-05
3.59628e-05
3.59627e-05
3.59619e-05
3.59605e-05
3.59587e-05
3.59567e-05
3.59549e-05
3.59532e-05
3.59493e-05
3.59485e-05
3.59482e-05
3.59483e-05
3.59489e-05
3.595e-05
3.59513e-05
3.5953e-05
3.59546e-05
3.59562e-05
3.59574e-05
3.59583e-05
3.59589e-05
3.59589e-05
3.59583e-05
3.59571e-05
3.59555e-05
3.59537e-05
3.5952e-05
3.59505e-05
3.59469e-05
3.59461e-05
3.59457e-05
3.59457e-05
3.59462e-05
3.59471e-05
3.59482e-05
3.59498e-05
3.59512e-05
3.59528e-05
3.59539e-05
3.59548e-05
3.59553e-05
3.59554e-05
3.59549e-05
3.59539e-05
3.59525e-05
3.5951e-05
3.59494e-05
3.5948e-05
3.59446e-05
3.59438e-05
3.59434e-05
3.59433e-05
3.59437e-05
3.59445e-05
3.59455e-05
3.59469e-05
3.59482e-05
3.59496e-05
3.59507e-05
3.59516e-05
3.59522e-05
3.59523e-05
3.5952e-05
3.59511e-05
3.59499e-05
3.59485e-05
3.5947e-05
3.59457e-05
3.59426e-05
3.59419e-05
3.59414e-05
3.59413e-05
3.59415e-05
3.59422e-05
3.59431e-05
3.59443e-05
3.59456e-05
3.59469e-05
3.59479e-05
3.59488e-05
3.59494e-05
3.59496e-05
3.59493e-05
3.59486e-05
3.59475e-05
3.59462e-05
3.59449e-05
3.59437e-05
3.59409e-05
3.59401e-05
3.59396e-05
3.59394e-05
3.59396e-05
3.59401e-05
3.59409e-05
3.59421e-05
3.59432e-05
3.59445e-05
3.59455e-05
3.59464e-05
3.59469e-05
3.59471e-05
3.59469e-05
3.59463e-05
3.59454e-05
3.59442e-05
3.5943e-05
3.59419e-05
3.59393e-05
3.59385e-05
3.5938e-05
3.59378e-05
3.59379e-05
3.59384e-05
3.59391e-05
3.59401e-05
3.59412e-05
3.59424e-05
3.59433e-05
3.59442e-05
3.59448e-05
3.5945e-05
3.59449e-05
3.59443e-05
3.59435e-05
3.59425e-05
3.59414e-05
3.59403e-05
3.59379e-05
3.59372e-05
3.59366e-05
3.59364e-05
3.59364e-05
3.59368e-05
3.59374e-05
3.59384e-05
3.59394e-05
3.59405e-05
3.59414e-05
3.59423e-05
3.59429e-05
3.59432e-05
3.59431e-05
3.59426e-05
3.59419e-05
3.59409e-05
3.59399e-05
3.59389e-05
3.59368e-05
3.5936e-05
3.59355e-05
3.59352e-05
3.59352e-05
3.59355e-05
3.59361e-05
3.5937e-05
3.59379e-05
3.5939e-05
3.59399e-05
3.59407e-05
3.59413e-05
3.59416e-05
3.59416e-05
3.59412e-05
3.59405e-05
3.59396e-05
3.59386e-05
3.59377e-05
3.59357e-05
3.5935e-05
3.59344e-05
3.59341e-05
3.59341e-05
3.59344e-05
3.59349e-05
3.59357e-05
3.59366e-05
3.59376e-05
3.59385e-05
3.59393e-05
3.59399e-05
3.59402e-05
3.59403e-05
3.59399e-05
3.59393e-05
3.59385e-05
3.59375e-05
3.59366e-05
3.5935e-05
3.59342e-05
3.59337e-05
3.59333e-05
3.59333e-05
3.59335e-05
3.59339e-05
3.59347e-05
3.59356e-05
3.59366e-05
3.59374e-05
3.59383e-05
3.59388e-05
3.59392e-05
3.59393e-05
3.59389e-05
3.59384e-05
3.59376e-05
3.59367e-05
3.59358e-05
3.59342e-05
3.59335e-05
3.5933e-05
3.59326e-05
3.59325e-05
3.59327e-05
3.59331e-05
3.59339e-05
3.59347e-05
3.59357e-05
3.59365e-05
3.59373e-05
3.59379e-05
3.59383e-05
3.59384e-05
3.5938e-05
3.59375e-05
3.59368e-05
3.59359e-05
3.59351e-05
3.59338e-05
3.59331e-05
3.59325e-05
3.59321e-05
3.59321e-05
3.59322e-05
3.59326e-05
3.59333e-05
3.59341e-05
3.59351e-05
3.59359e-05
3.59367e-05
3.59373e-05
3.59377e-05
3.59378e-05
3.59375e-05
3.59371e-05
3.59364e-05
3.59355e-05
3.59347e-05
3.59336e-05
3.59329e-05
3.59323e-05
3.59318e-05
3.59318e-05
3.5932e-05
3.59323e-05
3.5933e-05
3.59338e-05
3.59347e-05
3.59355e-05
3.59364e-05
3.59369e-05
3.59373e-05
3.59375e-05
3.59372e-05
3.59367e-05
3.5936e-05
3.59352e-05
3.59344e-05
3.59655e-05
3.59706e-05
3.59636e-05
3.59623e-05
3.59702e-05
3.5964e-05
3.5963e-05
3.59738e-05
3.59665e-05
3.59771e-05
3.59686e-05
3.59797e-05
3.59702e-05
3.59806e-05
3.59828e-05
3.59703e-05
3.59779e-05
3.59683e-05
3.59659e-05
3.59733e-05
2.55037e-05
2.30499e-05
2.24811e-05
2.38329e-05
2.66315e-05
3.01685e-05
3.37365e-05
3.69321e-05
3.96017e-05
4.1706e-05
4.32136e-05
4.40819e-05
4.42974e-05
4.39203e-05
4.30453e-05
4.16718e-05
3.96982e-05
3.6945e-05
3.33536e-05
2.92683e-05
2.52712e-05
2.92919e-05
3.38128e-05
3.78016e-05
4.07083e-05
4.2524e-05
4.3584e-05
4.42016e-05
4.45617e-05
4.47235e-05
4.45594e-05
4.38221e-05
4.23505e-05
4.01291e-05
3.71617e-05
3.33943e-05
2.91679e-05
2.5361e-05
2.30448e-05
2.29796e-05
3.47019e-05
3.76687e-05
3.96369e-05
4.08263e-05
4.14919e-05
4.18119e-05
4.19577e-05
4.20372e-05
4.21227e-05
4.24483e-05
4.26744e-05
4.17946e-05
3.91209e-05
3.48472e-05
2.98648e-05
2.55831e-05
2.33723e-05
2.38765e-05
2.67314e-05
3.07436e-05
3.72311e-05
3.85464e-05
3.92515e-05
3.95666e-05
3.96864e-05
3.97607e-05
3.98692e-05
4.0029e-05
4.03473e-05
4.23798e-05
4.51531e-05
4.53916e-05
4.15128e-05
3.49651e-05
2.89094e-05
2.5698e-05
2.58901e-05
2.85185e-05
3.19801e-05
3.50311e-05
3.79711e-05
3.843e-05
3.8621e-05
3.87001e-05
3.87691e-05
3.88513e-05
3.89819e-05
3.91648e-05
3.98545e-05
4.51244e-05
5.16642e-05
5.31978e-05
4.83995e-05
4.06544e-05
3.40087e-05
3.09889e-05
3.13024e-05
3.32861e-05
3.54335e-05
3.70248e-05
3.79035e-05
3.80425e-05
3.80883e-05
3.81078e-05
3.81529e-05
3.82288e-05
3.83632e-05
3.85532e-05
3.93833e-05
4.60842e-05
5.36788e-05
5.49916e-05
4.87249e-05
4.00315e-05
3.42957e-05
3.27404e-05
3.3728e-05
3.53949e-05
3.67393e-05
3.75317e-05
3.76896e-05
3.77201e-05
3.77399e-05
3.77718e-05
3.78319e-05
3.79118e-05
3.80367e-05
3.8213e-05
3.89903e-05
4.34535e-05
4.8829e-05
5.15488e-05
4.84409e-05
4.11081e-05
3.61229e-05
3.49073e-05
3.56196e-05
3.66073e-05
3.72628e-05
3.75734e-05
3.75262e-05
3.7533e-05
3.75446e-05
3.75671e-05
3.76111e-05
3.76769e-05
3.77797e-05
3.79343e-05
3.82147e-05
3.73543e-05
3.61812e-05
3.4966e-05
3.43645e-05
3.39616e-05
3.41235e-05
3.51587e-05
3.62907e-05
3.70234e-05
3.73679e-05
3.74904e-05
3.74005e-05
3.74079e-05
3.74232e-05
3.745e-05
3.74902e-05
3.75483e-05
3.76296e-05
3.77663e-05
3.79909e-05
3.64386e-05
3.37587e-05
2.98458e-05
2.83096e-05
3.01019e-05
3.28853e-05
3.51452e-05
3.64765e-05
3.70894e-05
3.73168e-05
3.73832e-05
3.7332e-05
3.73393e-05
3.73512e-05
3.7371e-05
3.74003e-05
3.74461e-05
3.7509e-05
3.76265e-05
3.781e-05
3.61087e-05
3.37168e-05
2.95485e-05
2.78697e-05
3.00245e-05
3.31856e-05
3.5451e-05
3.66246e-05
3.71099e-05
3.72747e-05
3.732e-05
3.7288e-05
3.72956e-05
3.73072e-05
3.73249e-05
3.73486e-05
3.73849e-05
3.74322e-05
3.75273e-05
3.76668e-05
3.58522e-05
3.37155e-05
2.94389e-05
2.83261e-05
3.08689e-05
3.38789e-05
3.58229e-05
3.67598e-05
3.71266e-05
3.72459e-05
3.72783e-05
3.72627e-05
3.72688e-05
3.72777e-05
3.7291e-05
3.73086e-05
3.7336e-05
3.7373e-05
3.74478e-05
3.75718e-05
3.56463e-05
3.43073e-05
3.06203e-05
2.97711e-05
3.20868e-05
3.45999e-05
3.6146e-05
3.68677e-05
3.71436e-05
3.72315e-05
3.72553e-05
3.72457e-05
3.72512e-05
3.72588e-05
3.72697e-05
3.72835e-05
3.73037e-05
3.73315e-05
3.73851e-05
3.74853e-05
3.57252e-05
3.38001e-05
2.94831e-05
2.93485e-05
3.21498e-05
3.47202e-05
3.62077e-05
3.68817e-05
3.71357e-05
3.72164e-05
3.72386e-05
3.7234e-05
3.72386e-05
3.72444e-05
3.72527e-05
3.72633e-05
3.72781e-05
3.7299e-05
3.73367e-05
3.74562e-05
3.61837e-05
3.54405e-05
3.13856e-05
3.06992e-05
3.28569e-05
3.50124e-05
3.63039e-05
3.69028e-05
3.71325e-05
3.72067e-05
3.72275e-05
3.72258e-05
3.72294e-05
3.72341e-05
3.72407e-05
3.7249e-05
3.726e-05
3.72756e-05
3.73012e-05
3.74049e-05
3.57119e-05
3.32607e-05
2.95397e-05
3.01571e-05
3.28689e-05
3.51037e-05
3.63595e-05
3.69234e-05
3.71351e-05
3.72022e-05
3.72205e-05
3.72192e-05
3.72218e-05
3.72253e-05
3.72305e-05
3.72369e-05
3.7245e-05
3.72543e-05
3.72672e-05
3.72748e-05
3.37249e-05
2.75805e-05
2.56298e-05
2.84331e-05
3.23359e-05
3.50612e-05
3.64179e-05
3.69635e-05
3.71488e-05
3.72024e-05
3.72157e-05
3.72146e-05
3.72156e-05
3.72182e-05
3.72223e-05
3.72275e-05
3.72341e-05
3.72414e-05
3.72506e-05
3.72556e-05
3.69497e-05
3.67461e-05
3.68298e-05
3.7008e-05
3.71158e-05
3.71577e-05
3.71931e-05
3.72125e-05
3.72177e-05
3.72169e-05
3.72151e-05
3.72092e-05
3.72097e-05
3.72117e-05
3.72149e-05
3.72191e-05
3.72244e-05
3.72301e-05
3.72371e-05
3.72441e-05
3.72399e-05
3.72341e-05
3.72344e-05
3.724e-05
3.72413e-05
3.72372e-05
3.72301e-05
3.72231e-05
3.72171e-05
3.72127e-05
3.72101e-05
3.72043e-05
3.72045e-05
3.72059e-05
3.72085e-05
3.72119e-05
3.72163e-05
3.72209e-05
3.7226e-05
3.72297e-05
3.7233e-05
3.72313e-05
3.72311e-05
3.72337e-05
3.72329e-05
3.72294e-05
3.72238e-05
3.72177e-05
3.72123e-05
3.72082e-05
3.72055e-05
3.71996e-05
3.71996e-05
3.72005e-05
3.72026e-05
3.72054e-05
3.72091e-05
3.72131e-05
3.72176e-05
3.72213e-05
3.72242e-05
3.72236e-05
3.72229e-05
3.72237e-05
3.72229e-05
3.72204e-05
3.7216e-05
3.72112e-05
3.72067e-05
3.72032e-05
3.72008e-05
3.71953e-05
3.7195e-05
3.71957e-05
3.71972e-05
3.71995e-05
3.72026e-05
3.72059e-05
3.72096e-05
3.72125e-05
3.72151e-05
3.72152e-05
3.72157e-05
3.72168e-05
3.72162e-05
3.7214e-05
3.72103e-05
3.72062e-05
3.72022e-05
3.7199e-05
3.71967e-05
3.71912e-05
3.71908e-05
3.71912e-05
3.71924e-05
3.71943e-05
3.71969e-05
3.71998e-05
3.72031e-05
3.72058e-05
3.72083e-05
3.72089e-05
3.72092e-05
3.72096e-05
3.7209e-05
3.72072e-05
3.72042e-05
3.72008e-05
3.71975e-05
3.71947e-05
3.71925e-05
3.71874e-05
3.71869e-05
3.7187e-05
3.71879e-05
3.71895e-05
3.71917e-05
3.71941e-05
3.7197e-05
3.71993e-05
3.72015e-05
3.72024e-05
3.72032e-05
3.72039e-05
3.72035e-05
3.72019e-05
3.71994e-05
3.71964e-05
3.71934e-05
3.71908e-05
3.71888e-05
3.71839e-05
3.71832e-05
3.71832e-05
3.71839e-05
3.71852e-05
3.7187e-05
3.71892e-05
3.71917e-05
3.71939e-05
3.71961e-05
3.7197e-05
3.71977e-05
3.71982e-05
3.71978e-05
3.71966e-05
3.71945e-05
3.7192e-05
3.71894e-05
3.7187e-05
3.71852e-05
3.71806e-05
3.71799e-05
3.71797e-05
3.71802e-05
3.71812e-05
3.71828e-05
3.71847e-05
3.71869e-05
3.71888e-05
3.71908e-05
3.71919e-05
3.71928e-05
3.71933e-05
3.71931e-05
3.71921e-05
3.71903e-05
3.71881e-05
3.71858e-05
3.71836e-05
3.71819e-05
3.71775e-05
3.71768e-05
3.71766e-05
3.71769e-05
3.71777e-05
3.71791e-05
3.71807e-05
3.71827e-05
3.71845e-05
3.71863e-05
3.71874e-05
3.71883e-05
3.71888e-05
3.71886e-05
3.71878e-05
3.71862e-05
3.71844e-05
3.71823e-05
3.71804e-05
3.71788e-05
3.71748e-05
3.7174e-05
3.71737e-05
3.71739e-05
3.71745e-05
3.71757e-05
3.71771e-05
3.71789e-05
3.71805e-05
3.71822e-05
3.71833e-05
3.71842e-05
3.71848e-05
3.71847e-05
3.7184e-05
3.71827e-05
3.71811e-05
3.71793e-05
3.71775e-05
3.7176e-05
3.71722e-05
3.71715e-05
3.71711e-05
3.71712e-05
3.71717e-05
3.71727e-05
3.71739e-05
3.71755e-05
3.7177e-05
3.71786e-05
3.71796e-05
3.71806e-05
3.71811e-05
3.71811e-05
3.71806e-05
3.71795e-05
3.7178e-05
3.71764e-05
3.71748e-05
3.71734e-05
3.717e-05
3.71692e-05
3.71688e-05
3.71687e-05
3.71691e-05
3.717e-05
3.7171e-05
3.71725e-05
3.71738e-05
3.71753e-05
3.71764e-05
3.71773e-05
3.71779e-05
3.7178e-05
3.71775e-05
3.71766e-05
3.71753e-05
3.71739e-05
3.71724e-05
3.71711e-05
3.71679e-05
3.71671e-05
3.71667e-05
3.71666e-05
3.71669e-05
3.71676e-05
3.71685e-05
3.71698e-05
3.71711e-05
3.71725e-05
3.71735e-05
3.71744e-05
3.7175e-05
3.71751e-05
3.71748e-05
3.7174e-05
3.71729e-05
3.71716e-05
3.71702e-05
3.7169e-05
3.71661e-05
3.71653e-05
3.71648e-05
3.71647e-05
3.71649e-05
3.71655e-05
3.71663e-05
3.71675e-05
3.71686e-05
3.71699e-05
3.71709e-05
3.71719e-05
3.71724e-05
3.71726e-05
3.71724e-05
3.71717e-05
3.71707e-05
3.71695e-05
3.71682e-05
3.71671e-05
3.71645e-05
3.71637e-05
3.71632e-05
3.7163e-05
3.71631e-05
3.71637e-05
3.71644e-05
3.71655e-05
3.71665e-05
3.71678e-05
3.71687e-05
3.71696e-05
3.71702e-05
3.71704e-05
3.71702e-05
3.71697e-05
3.71688e-05
3.71677e-05
3.71665e-05
3.71655e-05
3.7163e-05
3.71623e-05
3.71618e-05
3.71615e-05
3.71616e-05
3.7162e-05
3.71627e-05
3.71637e-05
3.71647e-05
3.71659e-05
3.71668e-05
3.71677e-05
3.71682e-05
3.71685e-05
3.71684e-05
3.71679e-05
3.71671e-05
3.71661e-05
3.7165e-05
3.7164e-05
3.71618e-05
3.71611e-05
3.71606e-05
3.71603e-05
3.71603e-05
3.71607e-05
3.71613e-05
3.71622e-05
3.71631e-05
3.71643e-05
3.71652e-05
3.7166e-05
3.71666e-05
3.71669e-05
3.71668e-05
3.71664e-05
3.71657e-05
3.71648e-05
3.71637e-05
3.71628e-05
3.71608e-05
3.716e-05
3.71595e-05
3.71592e-05
3.71592e-05
3.71595e-05
3.716e-05
3.71609e-05
3.71618e-05
3.71629e-05
3.71637e-05
3.71646e-05
3.71652e-05
3.71655e-05
3.71655e-05
3.71651e-05
3.71644e-05
3.71636e-05
3.71626e-05
3.71617e-05
3.716e-05
3.71593e-05
3.71587e-05
3.71583e-05
3.71583e-05
3.71586e-05
3.7159e-05
3.71599e-05
3.71607e-05
3.71618e-05
3.71626e-05
3.71635e-05
3.7164e-05
3.71644e-05
3.71644e-05
3.71641e-05
3.71635e-05
3.71627e-05
3.71617e-05
3.71609e-05
3.71592e-05
3.71585e-05
3.7158e-05
3.71576e-05
3.71576e-05
3.71578e-05
3.71582e-05
3.7159e-05
3.71598e-05
3.71609e-05
3.71617e-05
3.71625e-05
3.71631e-05
3.71634e-05
3.71635e-05
3.71632e-05
3.71626e-05
3.71619e-05
3.71609e-05
3.71601e-05
3.71588e-05
3.71581e-05
3.71575e-05
3.71571e-05
3.71571e-05
3.71573e-05
3.71576e-05
3.71585e-05
3.71592e-05
3.71603e-05
3.7161e-05
3.71619e-05
3.71625e-05
3.71629e-05
3.7163e-05
3.71626e-05
3.71622e-05
3.71614e-05
3.71605e-05
3.71597e-05
3.71585e-05
3.71578e-05
3.71572e-05
3.71568e-05
3.71568e-05
3.7157e-05
3.71573e-05
3.71581e-05
3.71589e-05
3.71599e-05
3.71606e-05
3.71615e-05
3.7162e-05
3.71625e-05
3.71626e-05
3.71622e-05
3.71618e-05
3.7161e-05
3.71602e-05
3.71594e-05
3.71903e-05
3.71949e-05
3.71884e-05
3.71873e-05
3.71946e-05
3.71888e-05
3.71881e-05
3.71983e-05
3.71914e-05
3.72016e-05
3.71934e-05
3.72042e-05
3.71951e-05
3.7205e-05
3.7207e-05
3.7195e-05
3.72022e-05
3.71931e-05
3.71909e-05
3.71977e-05
2.5407e-05
2.32593e-05
2.31616e-05
2.50001e-05
2.81832e-05
3.19378e-05
3.55881e-05
3.87868e-05
4.14213e-05
4.3471e-05
4.49075e-05
4.56844e-05
4.57862e-05
4.52756e-05
4.4246e-05
4.26789e-05
4.04456e-05
3.73631e-05
3.3437e-05
2.91437e-05
2.6642e-05
3.10014e-05
3.56312e-05
3.95518e-05
4.23218e-05
4.40265e-05
4.50216e-05
4.56091e-05
4.59609e-05
4.61372e-05
4.59994e-05
4.52641e-05
4.3732e-05
4.13626e-05
3.81443e-05
3.40484e-05
2.95454e-05
2.56683e-05
2.35564e-05
2.39082e-05
3.62464e-05
3.91638e-05
4.1069e-05
4.22074e-05
4.28356e-05
4.31338e-05
4.32736e-05
4.33584e-05
4.3471e-05
4.393e-05
4.43616e-05