/*--------------------------------*- C++ -*----------------------------------*\
| =========                 |                                                 |
| \\      /  F ield         | OpenFOAM: The Open Source CFD Toolbox           |
|  \\    /   O peration     | Version:  2.4.0                                 |
|   \\  /    A nd           | Web:      www.OpenFOAM.org                      |
|    \\/     M anipulation  |                                                 |
\*---------------------------------------------------------------------------*/
FoamFile
{
    version     2.0;
    format      ascii;
    class       volScalarField;
    location    "570";
    object      p;
}
// * * * * * * * * * * * * * * * * * * * * * * * * * * * * * * * * * * * * * //

dimensions      [0 2 -2 0 0 0 0];

internalField   nonuniform List<scalar> 
283312
(
-0.00626962
-0.00632785
-0.00656739
-0.00690826
-0.00726247
-0.00756085
-0.00779523
-0.00796012
-0.00808763
-0.00820106
-0.00832045
-0.00843232
-0.00850464
-0.00848165
-0.00833023
-0.00805754
-0.00767436
-0.00721771
-0.00676896
-0.00642648
0.00215301
0.00164903
0.0012207
0.000949324
0.000848045
0.000911888
0.00105351
0.00119351
0.00130366
0.00139137
0.00145895
0.00153811
0.00166689
0.00186792
0.00215447
0.00252553
0.00284272
0.00299598
0.0029213
0.00261712
-0.0023008
-0.00215169
-0.00192997
-0.001691
-0.00149971
-0.00140372
-0.00138646
-0.00139413
-0.00144475
-0.00148819
-0.00152016
-0.00149976
-0.00142777
-0.001326
-0.00127674
-0.00137924
-0.00161518
-0.00190583
-0.00216624
-0.00230978
0.00148384
0.00165528
0.00179832
0.00191271
0.00199553
0.00206393
0.00207046
0.00207636
0.00204246
0.00205229
0.00206867
0.00211612
0.00214696
0.00210882
0.00198634
0.00174977
0.0015024
0.00131956
0.00126409
0.00133649
-0.000744029
-0.000546401
-0.000430203
-0.000352478
-0.000349709
-0.00033758
-0.000349729
-0.000336773
-0.000367529
-0.00034567
-0.000356113
-0.000412007
-0.000585809
-0.000895994
-0.0013142
-0.00165032
-0.00174222
-0.00160442
-0.00132276
-0.00100898
0.00120486
0.00131404
0.00137165
0.00141706
0.00143066
0.00143784
0.00140321
0.00138987
0.00132508
0.00133388
0.00127645
0.00115173
0.000879225
0.000526027
0.000264976
0.000194572
0.000321307
0.000562102
0.000825872
0.00104854
-0.00015
-0.000110692
-0.000103948
-9.83262e-05
-0.000109727
-8.47575e-05
-8.52728e-05
-5.68103e-05
-8.85891e-05
-6.48255e-05
-0.000182328
-0.000455239
-0.000865874
-0.00126904
-0.00140011
-0.00124842
-0.000936728
-0.000624501
-0.00038232
-0.000229338
0.000764014
0.000812893
0.000836278
0.00086106
0.000849268
0.000845585
0.000807953
0.000787475
0.000718417
0.000707482
0.000546884
0.000231524
-0.00017321
-0.000362311
-0.000309421
-7.78756e-05
0.000206568
0.000433304
0.000595514
0.000699014
1.33423e-07
1.74389e-06
-9.23954e-06
-1.0928e-05
-1.23714e-05
9.55848e-06
1.14039e-05
3.1329e-05
3.49488e-06
6.60588e-06
-0.00018893
-0.000597205
-0.00100262
-0.0010857
-0.000870678
-0.000579539
-0.000314732
-0.000150325
-5.41816e-05
-1.20417e-05
0.0004419
0.000466389
0.000477113
0.000487543
0.000474676
0.00046626
0.000435811
0.000413468
0.000360083
0.000342686
0.000161462
-0.000210346
-0.000462699
-0.000448503
-0.000215759
9.75482e-06
0.000194594
0.000300034
0.000370872
0.000412511
4.42257e-05
4.21392e-05
3.32182e-05
3.50453e-05
3.42898e-05
4.93461e-05
4.97025e-05
6.60075e-05
4.8841e-05
7.34398e-05
-0.000104173
-0.000534971
-0.000716929
-0.000634364
-0.000390582
-0.000205285
-6.71578e-05
-4.12193e-06
3.2811e-05
4.34405e-05
0.000251177
0.000262894
0.000266675
0.000269797
0.000258614
0.000249841
0.000226238
0.000208632
0.000173229
0.000192169
5.50985e-05
-0.000227731
-0.000332345
-0.000226187
-4.5421e-05
6.89681e-05
0.000154727
0.000191207
0.000221402
0.000237331
5.52002e-05
5.5133e-05
5.062e-05
5.40507e-05
5.28544e-05
6.41178e-05
6.37555e-05
8.73097e-05
8.3932e-05
0.000190267
7.55105e-05
-0.000272248
-0.000356325
-0.000290625
-0.000145007
-6.32343e-05
4.77374e-06
2.88319e-05
4.88204e-05
5.33949e-05
0.000145649
0.000150808
0.000150995
0.00015128
0.000141495
0.000133702
0.000114544
0.000102373
8.17148e-05
0.00013906
9.81025e-05
-5.16243e-05
-0.000108756
-5.34793e-05
3.36737e-05
7.06494e-05
0.000108284
0.000118094
0.000133052
0.000138842
5.29554e-05
5.46547e-05
5.31626e-05
5.67065e-05
5.54966e-05
6.44763e-05
6.47663e-05
9.32957e-05
0.000105262
0.000280152
0.000267023
-5.06588e-05
-0.000137032
-0.000139589
-7.50629e-05
-3.47167e-05
1.12331e-05
2.69861e-05
4.4143e-05
4.90239e-05
8.91127e-05
9.13067e-05
9.00893e-05
8.9298e-05
8.09513e-05
7.40711e-05
5.76964e-05
4.7074e-05
2.90038e-05
8.6074e-05
0.0001959
3.7051e-05
-1.94152e-05
-1.941e-05
2.15342e-05
3.49271e-05
6.34494e-05
7.02463e-05
8.19769e-05
8.50373e-05
4.63824e-05
4.85716e-05
4.84678e-05
5.12976e-05
5.01915e-05
5.61807e-05
5.59794e-05
7.23529e-05
6.84953e-05
0.000106984
6.64694e-05
-3.0778e-05
-4.01419e-05
-5.48696e-05
-2.08994e-05
-1.1913e-05
1.47761e-05
2.35148e-05
3.72785e-05
4.18341e-05
5.95409e-05
6.02845e-05
5.87794e-05
5.76834e-05
5.09577e-05
4.50833e-05
3.22837e-05
2.18681e-05
9.77246e-06
9.09247e-06
4.07773e-05
9.82996e-06
1.88936e-05
1.65471e-05
3.6366e-05
3.51571e-05
4.91092e-05
4.92234e-05
5.62345e-05
5.71432e-05
3.95852e-05
4.14054e-05
4.16886e-05
4.35371e-05
4.24336e-05
4.58663e-05
4.58139e-05
5.3874e-05
5.14648e-05
5.81528e-05
3.3568e-05
-1.54749e-05
-1.68324e-05
-3.05285e-05
-8.36526e-06
-4.55799e-06
1.45898e-05
2.06566e-05
3.16222e-05
3.53749e-05
4.37959e-05
4.38933e-05
4.26004e-05
4.15058e-05
3.63608e-05
3.16336e-05
2.2141e-05
1.32275e-05
4.42188e-06
-2.43848e-06
1.1555e-05
6.4163e-06
2.27471e-05
2.05347e-05
3.41692e-05
3.02787e-05
3.89014e-05
3.74285e-05
4.21033e-05
4.21967e-05
3.41202e-05
3.52199e-05
3.54729e-05
3.64236e-05
3.51137e-05
3.67182e-05
3.64944e-05
3.97673e-05
3.90722e-05
3.78451e-05
2.53901e-05
-5.23301e-06
-6.21053e-06
-1.71485e-05
-1.94476e-06
4.35708e-07
1.47166e-05
1.92818e-05
2.78197e-05
3.05372e-05
3.50626e-05
3.48379e-05
3.39445e-05
3.29659e-05
2.91543e-05
2.55989e-05
1.88304e-05
1.17232e-05
5.84278e-06
-9.17009e-07
6.80699e-06
6.97614e-06
2.1822e-05
1.97552e-05
2.98177e-05
2.60923e-05
3.20262e-05
3.05787e-05
3.39887e-05
3.38441e-05
3.02543e-05
3.0545e-05
3.07465e-05
3.09604e-05
2.94881e-05
2.98319e-05
2.91988e-05
2.96644e-05
3.00579e-05
2.61776e-05
2.10643e-05
7.85485e-07
1.06845e-06
-6.94531e-06
3.90257e-06
5.4496e-06
1.58476e-05
1.92367e-05
2.56036e-05
2.73438e-05
3.01478e-05
2.95189e-05
2.9078e-05
2.81546e-05
2.5209e-05
2.26128e-05
1.84063e-05
1.24987e-05
9.31021e-06
3.23379e-06
8.50157e-06
8.23242e-06
2.00085e-05
1.76111e-05
2.55627e-05
2.28954e-05
2.72457e-05
2.64446e-05
2.91228e-05
2.88107e-05
2.77341e-05
2.72057e-05
2.75196e-05
2.72573e-05
2.55551e-05
2.52105e-05
2.42462e-05
2.28777e-05
2.39368e-05
1.92592e-05
1.82224e-05
4.72356e-06
6.75262e-06
9.89513e-07
9.01592e-06
1.00765e-05
1.72706e-05
1.98434e-05
2.44594e-05
2.52718e-05
2.72913e-05
2.617e-05
2.61931e-05
2.51847e-05
2.28046e-05
2.12049e-05
1.83581e-05
1.3519e-05
1.28517e-05
6.62509e-06
1.15806e-05
9.0174e-06
1.84063e-05
1.58807e-05
2.20736e-05
2.06806e-05
2.39769e-05
2.39809e-05
2.60761e-05
2.56198e-05
2.59867e-05
2.49971e-05
2.55819e-05
2.47117e-05
2.31234e-05
2.24062e-05
2.15316e-05
1.86808e-05
2.02995e-05
1.52306e-05
1.69627e-05
7.5757e-06
1.11369e-05
6.40928e-06
1.29333e-05
1.36538e-05
1.85875e-05
2.06955e-05
2.37133e-05
2.40457e-05
2.56853e-05
2.36319e-05
2.44617e-05
2.33672e-05
2.10902e-05
2.01357e-05
1.83247e-05
1.39511e-05
1.51969e-05
8.86356e-06
1.39796e-05
9.66636e-06
1.75655e-05
1.46409e-05
1.99069e-05
1.95014e-05
2.15962e-05
2.26072e-05
2.42776e-05
2.34725e-05
2.53569e-05
2.33723e-05
2.45186e-05
2.30607e-05
2.12419e-05
2.12584e-05
1.98683e-05
1.62314e-05
1.92492e-05
1.27242e-05
1.72015e-05
8.92771e-06
1.42938e-05
1.01881e-05
1.5347e-05
1.64816e-05
1.93821e-05
2.15414e-05
2.32066e-05
2.28776e-05
2.43531e-05
2.1837e-05
2.3526e-05
2.18107e-05
1.99119e-05
1.95133e-05
1.84012e-05
1.33818e-05
1.67227e-05
9.64465e-06
1.57957e-05
9.84229e-06
1.75828e-05
1.3519e-05
1.85184e-05
1.87833e-05
2.01226e-05
2.20014e-05
2.27503e-05
2.20928e-05
2.5246e-05
2.14804e-05
2.40906e-05
2.24892e-05
1.97617e-05
2.03839e-05
1.91915e-05
1.46755e-05
1.91727e-05
1.13477e-05
1.79592e-05
9.72164e-06
1.65634e-05
1.21725e-05
1.71579e-05
1.85359e-05
1.91123e-05
2.23191e-05
2.33079e-05
2.18294e-05
2.38643e-05
1.9962e-05
2.2989e-05
2.07936e-05
1.83052e-05
1.95055e-05
1.81947e-05
1.23462e-05
1.82122e-05
8.83793e-06
1.75625e-05
8.97701e-06
1.77307e-05
1.26208e-05
1.73311e-05
1.87802e-05
1.86724e-05
2.17809e-05
2.16485e-05
2.03573e-05
2.5088e-05
2.02221e-05
2.41766e-05
2.15141e-05
1.8551e-05
2.04117e-05
1.88143e-05
1.29415e-05
1.98369e-05
9.99956e-06
1.92114e-05
9.61823e-06
1.85484e-05
1.27529e-05
1.78824e-05
1.97563e-05
1.89119e-05
2.3118e-05
2.27034e-05
2.0891e-05
2.40705e-05
1.7267e-05
2.29559e-05
2.03817e-05
1.56968e-05
1.99658e-05
1.79252e-05
1.03424e-05
1.93954e-05
7.09801e-06
1.89718e-05
7.42079e-06
1.82881e-05
1.11236e-05
1.61224e-05
1.93843e-05
1.64092e-05
2.1854e-05
2.10098e-05
1.78051e-05
2.51528e-05
1.83456e-05
2.4681e-05
2.07503e-05
1.68882e-05
2.10919e-05
1.83923e-05
1.06945e-05
2.13676e-05
7.71498e-06
2.10964e-05
8.04776e-06
2.02282e-05
1.19521e-05
1.7976e-05
2.06223e-05
1.77101e-05
2.40064e-05
2.19807e-05
1.94767e-05
2.4156e-05
1.40264e-05
2.37933e-05
1.9236e-05
1.23527e-05
2.11387e-05
1.74369e-05
6.62532e-06
2.11069e-05
3.59163e-06
2.08147e-05
4.2394e-06
1.92914e-05
8.31617e-06
1.46167e-05
1.96849e-05
1.35659e-05
2.25458e-05
1.94874e-05
1.47195e-05
2.58201e-05
1.5495e-05
2.56573e-05
1.97797e-05
1.36872e-05
2.23954e-05
1.76892e-05
7.65567e-06
2.29512e-05
4.57554e-06
2.28187e-05
5.33107e-06
2.14779e-05
9.46284e-06
1.73871e-05
2.16346e-05
1.52227e-05
2.49632e-05
2.08105e-05
1.66263e-05
2.50888e-05
7.58445e-06
2.63958e-05
1.82532e-05
5.38927e-06
2.43557e-05
1.68445e-05
-1.25145e-06
2.46734e-05
-3.72873e-06
2.43279e-05
-2.66745e-06
2.17185e-05
1.89392e-06
1.20255e-05
2.10873e-05
7.47088e-06
2.46144e-05
1.78269e-05
8.76264e-06
2.62146e-05
1.03378e-05
2.75046e-05
1.76161e-05
8.19863e-06
2.50089e-05
1.59316e-05
1.69221e-06
2.51562e-05
-1.26889e-06
2.48627e-05
-2.00807e-07
2.26542e-05
4.18463e-06
1.55155e-05
2.18275e-05
1.01635e-05
2.62348e-05
1.79921e-05
1.17826e-05
2.82833e-05
-6.76483e-06
3.4072e-05
1.44176e-05
-1.19752e-05
3.40249e-05
1.38324e-05
-1.99366e-05
3.23837e-05
-2.06818e-05
3.13138e-05
-1.89725e-05
2.70516e-05
-1.40785e-05
6.78611e-06
2.45747e-05
-6.66933e-06
3.08995e-05
1.29156e-05
-5.60581e-06
-0.0109866
-0.0105942
-0.0102884
-0.0100771
-0.00996073
-0.0099484
-0.0100695
-0.0103044
-0.0106473
-0.011074
-0.0115622
-0.0120606
-0.0125063
-0.0128212
-0.0129545
-0.0129169
-0.0127161
-0.0123681
-0.0119228
-0.0114432
0.00232625
0.00228035
0.00214926
0.00198786
0.00183387
0.00174404
0.001675
0.00158988
0.00146779
0.00131347
0.00111146
0.00088842
0.0006994
0.000605164
0.000667439
0.000935739
0.00131237
0.00170486
0.00203612
0.00225046
-0.00233636
-0.00210102
-0.00191561
-0.00177996
-0.00173062
-0.00178664
-0.00191433
-0.00206424
-0.00228227
-0.0025384
-0.00286984
-0.00322086
-0.00352349
-0.00369316
-0.00372964
-0.00365448
-0.00346609
-0.00318804
-0.00288638
-0.00259707
0.00291024
0.00297362
0.00299784
0.00301527
0.00302022
0.00302015
0.0029535
0.00287538
0.00270875
0.00251587
0.00218809
0.00181911
0.00151266
0.00138228
0.00150985
0.00176945
0.00210792
0.00241329
0.00264765
0.00281059
-0.000458569
-0.00031088
-0.000237978
-0.00019101
-0.000228524
-0.000244297
-0.000305666
-0.000352568
-0.000508043
-0.000704259
-0.00112496
-0.00163082
-0.00205871
-0.00228686
-0.00231018
-0.00212763
-0.00177024
-0.0013623
-0.000981266
-0.000674085
0.00202436
0.00212599
0.00217658
0.00222234
0.00221861
0.00220849
0.00212564
0.00205406
0.0018585
0.0016344
0.00112048
0.000583546
0.00020824
0.000148324
0.000363862
0.000721887
0.00110013
0.00142768
0.00169146
0.00188955
6.06444e-05
0.000104659
0.000108769
0.000112966
9.06089e-05
0.00011262
8.22574e-05
7.50105e-05
-7.18642e-05
-0.000282437
-0.000891001
-0.00153952
-0.00194209
-0.00199603
-0.00169885
-0.00124497
-0.000786639
-0.000429668
-0.000177213
-2.09388e-05
0.00125592
0.00132606
0.0013588
0.0013928
0.00136828
0.0013544
0.00127735
0.0012114
0.00102322
0.000771368
0.000115622
-0.000489542
-0.000756601
-0.000571851
-0.000172661
0.000240277
0.000601625
0.000855723
0.00104161
0.00116889
0.000173758
0.000183588
0.000171158
0.000172261
0.000164771
0.000189044
0.000169165
0.000164371
4.10974e-05
-0.000181159
-0.000863726
-0.00150389
-0.00171863
-0.0014561
-0.000968662
-0.000552333
-0.000224439
-3.10525e-05
9.0734e-05
0.000150598
0.000743429
0.000783586
0.000799888
0.000815457
0.000792658
0.000777374
0.000717468
0.00066237
0.000518144
0.000290313
-0.000337103
-0.000847065
-0.000856178
-0.000556869
-0.000132849
0.000166544
0.000398565
0.000530481
0.000630927
0.000695491
0.000179011
0.000182776
0.000172521
0.000178229
0.000172865
0.000191186
0.000176543
0.000180533
9.87166e-05
-4.70238e-05
-0.00062341
-0.00115682
-0.00109757
-0.000794565
-0.000407448
-0.0001719
6.52427e-06
8.88738e-05
0.000147354
0.000170245
0.000436506
0.000457462
0.000463499
0.000469647
0.000450498
0.00043749
0.000393615
0.000357579
0.000265856
0.000139346
-0.000326232
-0.000619836
-0.000506697
-0.000239606
3.33011e-05
0.00017064
0.000283855
0.000332808
0.00038267
0.000411423
0.000155854
0.000160492
0.000155574
0.000162897
0.000158189
0.000173645
0.000164406
0.000190826
0.00015614
0.000180892
-0.00019973
-0.000575238
-0.000489136
-0.000327989
-0.000117497
-2.51266e-05
6.68708e-05
9.94912e-05
0.000135256
0.000147617
0.00026225
0.0002729
0.00027374
0.000276098
0.000259863
0.000249755
0.000216731
0.000198031
0.000150909
0.00014231
-8.04675e-05
-0.000198048
-0.000125531
-1.0318e-05
0.0001118
0.000143393
0.000195153
0.000207817
0.000235739
0.000248331
0.000127516
0.00013329
0.000132135
0.00013919
0.000135295
0.00014878
0.00014439
0.000185345
0.000191664
0.000365573
0.000228875
-0.000146372
-0.000154562
-0.000139835
-4.82573e-05
-1.03948e-05
5.46989e-05
7.59202e-05
0.000106751
0.000117682
0.000166158
0.000171873
0.000170701
0.000171396
0.000157755
0.000149354
0.000122327
0.0001098
7.80649e-05
0.000145084
0.000251639
8.32685e-06
-2.29471e-05
-1.50825e-05
5.42464e-05
6.77549e-05
0.000114962
0.000125808
0.000149135
0.000156843
0.000102662
0.000108153
0.000108633
0.000114258
0.000110952
0.000120334
0.000116539
0.000141312
0.000130456
0.000185717
0.000108642
-6.10593e-05
-5.50103e-05
-7.62977e-05
-1.48467e-05
-4.36666e-06
4.27406e-05
5.73066e-05
8.341e-05
9.29013e-05
0.000114302
0.000117275
0.000115612
0.000115547
0.000104554
9.73586e-05
7.62692e-05
6.32549e-05
4.14074e-05
4.32984e-05
7.53007e-05
4.57293e-06
2.90985e-05
2.15173e-05
6.15629e-05
5.82042e-05
8.67155e-05
8.86061e-05
0.000104388
0.000108082
8.37986e-05
8.79565e-05
8.87498e-05
9.25705e-05
8.95607e-05
9.50933e-05
9.22658e-05
0.000104264
9.67807e-05
0.000106188
6.34077e-05
-2.57678e-05
-1.74716e-05
-4.13633e-05
2.92496e-07
3.54272e-06
3.81822e-05
4.77804e-05
6.82636e-05
7.54105e-05
8.58867e-05
8.73001e-05
8.58291e-05
8.53857e-05
7.68833e-05
7.09884e-05
5.52808e-05
4.3234e-05
2.73661e-05
1.71078e-05
3.10762e-05
8.9138e-06
3.95641e-05
3.09372e-05
5.91633e-05
5.14806e-05
7.0328e-05
6.89187e-05
7.98898e-05
8.14719e-05
7.06233e-05
7.31097e-05
7.37268e-05
7.58992e-05
7.28186e-05
7.55267e-05
7.30731e-05
7.75042e-05
7.37391e-05
7.00458e-05
4.8834e-05
-5.59365e-06
5.00838e-07
-1.95294e-05
9.78643e-06
1.0897e-05
3.66745e-05
4.33126e-05
5.89571e-05
6.37762e-05
6.98107e-05
7.01845e-05
6.92134e-05
6.85658e-05
6.21251e-05
5.76321e-05
4.6368e-05
3.61406e-05
2.57608e-05
1.41797e-05
2.27216e-05
1.40108e-05
4.07084e-05
3.28646e-05
5.37874e-05
4.64136e-05
5.9739e-05
5.78573e-05
6.58662e-05
6.6427e-05
6.19968e-05
6.27755e-05
6.32972e-05
6.40924e-05
6.09345e-05
6.17116e-05
5.92159e-05
5.91792e-05
5.81677e-05
5.01594e-05
4.18023e-05
6.18059e-06
1.24204e-05
-2.85838e-06
1.84773e-05
1.86745e-05
3.744e-05
4.21075e-05
5.3649e-05
5.65004e-05
6.067e-05
5.99185e-05
5.96148e-05
5.87002e-05
5.35849e-05
5.03067e-05
4.31157e-05
3.41109e-05
2.87465e-05
1.76152e-05
2.47567e-05
1.81924e-05
3.95123e-05
3.20099e-05
4.84002e-05
4.28946e-05
5.2633e-05
5.1531e-05
5.75949e-05
5.74188e-05
5.66519e-05
5.57383e-05
5.65216e-05
5.63203e-05
5.2931e-05
5.27079e-05
5.01694e-05
4.71842e-05
4.82475e-05
3.88366e-05
3.79232e-05
1.37757e-05
2.15608e-05
1.00098e-05
2.60578e-05
2.59948e-05
3.90368e-05
4.25694e-05
5.08407e-05
5.19661e-05
5.54018e-05
5.34062e-05
5.3921e-05
5.25353e-05
4.8263e-05
4.63702e-05
4.14305e-05
3.35289e-05
3.28058e-05
2.11321e-05
2.9303e-05
2.07493e-05
3.82473e-05
3.11416e-05
4.40361e-05
4.07901e-05
4.79339e-05
4.80716e-05
5.25566e-05
5.18001e-05
5.32428e-05
5.10935e-05
5.25324e-05
5.11322e-05
4.79231e-05
4.72907e-05
4.51551e-05
3.97407e-05
4.27101e-05
3.23517e-05
3.67218e-05
1.90315e-05
2.86289e-05
1.88239e-05
3.18818e-05
3.18178e-05
4.06561e-05
4.37866e-05
4.91387e-05
4.92586e-05
5.25234e-05
4.85847e-05
5.06e-05
4.86899e-05
4.45297e-05
4.3727e-05
4.04075e-05
3.27219e-05
3.58194e-05
2.3429e-05
3.31925e-05
2.24627e-05
3.79321e-05
3.04858e-05
4.14523e-05
4.00889e-05
4.45537e-05
4.64262e-05
4.96178e-05
4.80533e-05
5.19179e-05
4.76665e-05
5.04106e-05
4.77722e-05
4.41626e-05
4.48617e-05
4.21374e-05
3.51554e-05
4.13205e-05
2.82041e-05
3.78214e-05
2.1543e-05
3.38694e-05
2.48314e-05
3.55075e-05
3.65187e-05
4.15452e-05
4.52279e-05
4.80377e-05
4.69371e-05
5.04446e-05
4.50134e-05
4.8904e-05
4.56727e-05
4.18381e-05
4.22652e-05
3.99252e-05
3.07594e-05
3.81279e-05
2.37106e-05
3.64513e-05
2.29519e-05
3.8766e-05
2.95106e-05
3.98444e-05
3.99348e-05
4.23133e-05
4.59959e-05
4.72268e-05
4.55074e-05
5.16557e-05
4.39694e-05
4.96204e-05
4.62614e-05
4.10996e-05
4.33094e-05
4.07726e-05
3.18812e-05
4.16517e-05
2.54758e-05
3.97867e-05
2.26545e-05
3.78056e-05
2.78223e-05
3.81519e-05
4.00541e-05
4.07929e-05
4.67122e-05
4.78781e-05
4.4805e-05
4.98062e-05
4.13106e-05
4.81444e-05
4.36405e-05
3.85576e-05
4.21175e-05
3.92384e-05
2.80941e-05
4.07104e-05
2.15394e-05
3.98038e-05
2.14088e-05
3.97723e-05
2.82912e-05
3.83186e-05
4.06588e-05
3.98452e-05
4.61831e-05
4.54166e-05
4.23651e-05
5.1587e-05
4.10052e-05
4.98922e-05
4.43425e-05
3.82414e-05
4.34698e-05
3.98922e-05
2.81269e-05
4.33045e-05
2.23724e-05
4.25776e-05
2.18403e-05
4.13476e-05
2.82665e-05
3.90663e-05
4.23811e-05
3.98051e-05
4.83205e-05
4.66815e-05
4.2597e-05
5.0325e-05
3.62028e-05
4.84435e-05
4.24905e-05
3.35957e-05
4.31088e-05
3.8472e-05
2.3711e-05
4.32056e-05
1.75589e-05
4.28659e-05
1.81862e-05
4.13944e-05
2.55374e-05
3.64914e-05
4.21223e-05
3.58031e-05
4.68765e-05
4.40741e-05
3.77608e-05
5.20015e-05
3.67571e-05
5.11418e-05
4.26667e-05
3.42839e-05
4.50338e-05
3.88728e-05
2.30848e-05
4.64924e-05
1.72728e-05
4.64534e-05
1.81386e-05
4.45545e-05
2.59869e-05
3.88434e-05
4.41572e-05
3.68721e-05
5.02166e-05
4.50795e-05
3.92772e-05
5.08561e-05
2.97495e-05
5.03984e-05
4.01948e-05
2.69542e-05
4.56671e-05
3.72702e-05
1.62196e-05
4.68459e-05
1.03024e-05
4.68148e-05
1.17527e-05
4.37497e-05
1.99925e-05
3.39308e-05
4.31214e-05
3.02338e-05
4.86226e-05
4.11753e-05
3.18133e-05
5.34641e-05
3.03214e-05
5.36179e-05
4.04739e-05
2.72392e-05
4.81954e-05
3.72451e-05
1.58832e-05
5.02556e-05
9.89192e-06
5.04676e-05
1.1664e-05
4.73857e-05
2.01694e-05
3.73169e-05
4.61816e-05
3.12119e-05
5.25313e-05
4.24408e-05
3.31471e-05
5.28017e-05
1.78496e-05
5.55112e-05
3.77862e-05
1.41222e-05
5.20011e-05
3.56036e-05
1.70903e-06
5.36719e-05
-3.47137e-06
5.35341e-05
-1.14871e-06
4.83596e-05
8.06671e-06
2.94475e-05
4.5728e-05
1.90399e-05
5.27086e-05
3.75485e-05
2.09068e-05
5.48604e-05
1.95018e-05
5.81959e-05
3.62209e-05
1.55907e-05
5.43565e-05
3.37682e-05
3.09813e-06
5.5637e-05
-2.6841e-06
5.55065e-05
-2.00497e-07
5.0551e-05
8.93366e-06
3.35712e-05
4.72913e-05
2.07084e-05
5.58984e-05
3.69266e-05
2.30811e-05
5.81345e-05
-5.05628e-06
6.85117e-05
3.11231e-05
-1.32672e-05
6.84299e-05
3.03283e-05
-2.79148e-05
6.69524e-05
-3.07358e-05
6.56377e-05
-2.72754e-05
5.74357e-05
-1.74175e-05
2.13847e-05
5.15622e-05
-3.39095e-06
6.3226e-05
2.89525e-05
-1.63976e-06
-0.0135294
-0.0129804
-0.0125312
-0.0122036
-0.0120117
-0.0119854
-0.0121407
-0.0124562
-0.0129208
-0.0134989
-0.0141541
-0.0148179
-0.0154091
-0.0158333
-0.0160267
-0.015997
-0.015756
-0.0153249
-0.0147623
-0.0141411
0.00193447
0.00199136
0.00192515
0.00179077
0.00163351
0.00151842
0.00138228
0.00120746
0.000972715
0.000687819
0.000341716
-2.52214e-05
-0.000336975
-0.000510463
-0.000465335
-0.000152137
0.000325987
0.000859944
0.00135111
0.00172264
-0.0027463
-0.00243853
-0.00222224
-0.00208723
-0.00207319
-0.00218068
-0.00237753
-0.00261741
-0.00295205
-0.00334952
-0.0038492
-0.00437133
-0.00481333
-0.00505154
-0.00507933
-0.00489733
-0.00453528
-0.00405828
-0.00356786
-0.00312188
0.0033818
0.00345926
0.00347783
0.00348057
0.00345797
0.0034139
0.00328825
0.00313279
0.00285451
0.00251833
0.00200369
0.00145074
0.00102373
0.000887725
0.00113737
0.00158343
0.00213128
0.00262086
0.00299153
0.00323982
-0.000285163
-0.000126141
-5.50755e-05
-1.87827e-05
-7.96368e-05
-0.000120765
-0.000230564
-0.000344114
-0.000611039
-0.000961783
-0.00160204
-0.00231544
-0.0028447
-0.00304783
-0.00291549
-0.00251677
-0.00195101
-0.00138188
-0.000895904
-0.000529284
0.00247788
0.00259709
0.00265315
0.0026998
0.00267691
0.00264347
0.00251205
0.00237507
0.00206415
0.00167618
0.000918525
0.000183532
-0.000249178
-0.00019406
0.000213542
0.000771066
0.00130824
0.00174348
0.0020757
0.00231671
0.000290864
0.000348644
0.000355653
0.00035796
0.00032611
0.00033432
0.000266357
0.000205518
-5.07262e-05
-0.000428863
-0.00130557
-0.00214885
-0.00257541
-0.0024817
-0.00197886
-0.00134312
-0.000752268
-0.000310985
-3.8167e-06
0.000187787
0.00158481
0.00167342
0.00171328
0.00174982
0.00171282
0.00168289
0.00156684
0.00144674
0.00115073
0.000728875
-0.000200163
-0.000970929
-0.00120046
-0.000857763
-0.000266426
0.000288701
0.000752381
0.0010736
0.00130915
0.00147246
0.000370673
0.000392093
0.000381859
0.000385343
0.000369827
0.000385553
0.000336353
0.000289349
7.14487e-05
-0.000312697
-0.00126939
-0.00205854
-0.00219985
-0.0017681
-0.00110765
-0.000574976
-0.000163418
8.29525e-05
0.000244209
0.000330598
0.000967377
0.00102019
0.00104045
0.00105741
0.00102541
0.000999511
0.00091062
0.000815445
0.000585639
0.000209188
-0.000674591
-0.00129114
-0.0012009
-0.00074763
-0.000183024
0.000203766
0.000502595
0.000677354
0.000812898
0.000902047
0.00032949
0.000341317
0.000332253
0.000340389
0.000328751
0.00034205
0.000306586
0.000283501
0.000133282
-0.000135302
-0.000946299
-0.00156708
-0.0013959
-0.00096293
-0.000461229
-0.000160893
7.02571e-05
0.000184045
0.000269266
0.000309234
0.000586624
0.000615394
0.000623085
0.000630354
0.00060409
0.000584607
0.000521049
0.000460976
0.000313383
8.69918e-05
-0.000576027
-0.000910378
-0.000694887
-0.000325307
3.16392e-05
0.000211612
0.000364243
0.00043577
0.000507712
0.000550809
0.000266187
0.000276517
0.000272382
0.000281854
0.000272386
0.000285908
0.00026367
0.000279666
0.000206653
0.000171444
-0.000373998
-0.000792558
-0.000621571
-0.000393139
-0.000119435
5.45126e-07
0.000124073
0.000173153
0.000226877
0.000249897
0.000364315
0.000379937
0.000381363
0.000384762
0.000362979
0.00034931
0.000303444
0.000274236
0.000198531
0.000146869
-0.000189871
-0.000322408
-0.00018563
-2.69169e-05
0.000136438
0.000181877
0.000256534
0.000279899
0.000322363
0.000343378
0.000208001
0.000217994
0.000217454
0.000226377
0.000218855
0.000232293
0.00022032
0.000262051
0.000254073
0.000423657
0.000205033
-0.000227917
-0.000194067
-0.000162121
-3.66783e-05
1.11343e-05
9.83432e-05
0.000129284
0.000173764
0.000191995
0.000238185
0.000247279
0.000246274
0.000247867
0.000229765
0.000219281
0.000183112
0.000166702
0.000120668
0.000188047
0.000272719
-3.08668e-05
-4.12311e-05
-2.51388e-05
7.11349e-05
9.17533e-05
0.000157825
0.000175706
0.000210404
0.000223736
0.000162734
0.000171321
0.000172235
0.000179316
0.000173075
0.000182711
0.000173582
0.000199914
0.000179851
0.000239168
0.000132109
-8.80819e-05
-6.91166e-05
-9.18576e-05
-6.22948e-06
9.3421e-06
7.47266e-05
9.62038e-05
0.000133357
0.000148113
0.000167995
0.00017326
0.000171585
0.000172186
0.000157567
0.000148854
0.000120841
0.000104898
7.37256e-05
7.41031e-05
9.73963e-05
-5.63626e-06
3.07094e-05
2.03839e-05
7.89533e-05
7.74219e-05
0.000120073
0.000126047
0.000150511
0.000157929
0.000130636
0.000136898
0.000137922
0.000142722
0.000137219
0.000142752
0.000135892
0.000148007
0.000134462
0.000142454
8.56139e-05
-3.37904e-05
-1.73118e-05
-4.70614e-05
1.15558e-05
1.66497e-05
6.50157e-05
7.8904e-05
0.000107821
0.00011853
0.000128441
0.0001313
0.000129738
0.000129694
0.000118239
0.000111101
9.01665e-05
7.52086e-05
5.28915e-05
3.85513e-05
4.83442e-05
9.58331e-06
5.01867e-05
3.66954e-05
7.82267e-05
6.99255e-05
9.90466e-05
9.97633e-05
0.000117192
0.00012113
0.000109138
0.000112858
0.000113555
0.000116252
0.000110964
0.000113387
0.000107755
0.000111159
0.000103509
9.60461e-05
6.81769e-05
-4.55182e-06
8.11789e-06
-1.77937e-05
2.39366e-05
2.53203e-05
6.12505e-05
7.04787e-05
9.2401e-05
9.94673e-05
0.000105595
0.000106696
0.000105642
0.000105123
9.6247e-05
9.07327e-05
7.55893e-05
6.25317e-05
4.80603e-05
3.1721e-05
3.88044e-05
2.03353e-05
5.54219e-05
4.2824e-05
7.36736e-05
6.50018e-05
8.59025e-05
8.51979e-05
9.80113e-05
9.9978e-05
9.54074e-05
9.66351e-05
9.7209e-05
9.81224e-05
9.29573e-05
9.32766e-05
8.82328e-05
8.64535e-05
8.32523e-05
7.08308e-05
6.00118e-05
1.25782e-05
2.46483e-05
4.38124e-06
3.50835e-05
3.49563e-05
6.11456e-05
6.74494e-05
8.35831e-05
8.77021e-05
9.24057e-05
9.16818e-05
9.14171e-05
9.03458e-05
8.3125e-05
7.90481e-05
6.90763e-05
5.72847e-05
4.98358e-05
3.39197e-05
4.14957e-05
2.79719e-05
5.63838e-05
4.46304e-05
6.87477e-05
6.20669e-05
7.74003e-05
7.71457e-05
8.67617e-05
8.72755e-05
8.70229e-05
8.58027e-05
8.67855e-05
8.63347e-05
8.10498e-05
8.03756e-05
7.57842e-05
7.05494e-05
7.08845e-05
5.68534e-05
5.61647e-05
2.36802e-05
3.70502e-05
2.13121e-05
4.46424e-05
4.41768e-05
6.25084e-05
6.72601e-05
7.88081e-05
8.04454e-05
8.47709e-05
8.20835e-05
8.29175e-05
8.10387e-05
7.48488e-05
7.2467e-05
6.54567e-05
5.47248e-05
5.37003e-05
3.70845e-05
4.73101e-05
3.27341e-05
5.6599e-05
4.56656e-05
6.47889e-05
6.08066e-05
7.19826e-05
7.30139e-05
8.00193e-05
7.93883e-05
8.18543e-05
7.86456e-05
8.06574e-05
7.8584e-05
7.35483e-05
7.26599e-05
6.88692e-05
6.07064e-05
6.43658e-05
4.90236e-05
5.57142e-05
3.1267e-05
4.65733e-05
3.29344e-05
5.19493e-05
5.16765e-05
6.41127e-05
6.84642e-05
7.59835e-05
7.60516e-05
8.06015e-05
7.50862e-05
7.79835e-05
7.51814e-05
6.91013e-05
6.82397e-05
6.32917e-05
5.24925e-05
5.69787e-05
3.91421e-05
5.25544e-05
3.58236e-05
5.75841e-05
4.63635e-05
6.26556e-05
6.10918e-05
6.81645e-05
7.13069e-05
7.61108e-05
7.41501e-05
7.96643e-05
7.33814e-05
7.73908e-05
7.35781e-05
6.80193e-05
6.90357e-05
6.47903e-05
5.44848e-05
6.30324e-05
4.3985e-05
5.80001e-05
3.50528e-05
5.372e-05
4.07474e-05
5.65573e-05
5.78177e-05
6.49133e-05
7.02283e-05
7.42026e-05
7.25031e-05
7.78413e-05
6.97957e-05
7.54847e-05
7.08038e-05
6.4883e-05
6.59539e-05
6.21621e-05
4.91929e-05
5.98727e-05
3.88761e-05
5.71911e-05
3.69055e-05
5.9675e-05
4.61395e-05
6.14054e-05
6.18842e-05
6.55056e-05
7.11615e-05
7.30539e-05
7.04607e-05
7.9078e-05
6.79997e-05
7.61336e-05
7.10498e-05
6.34698e-05
6.69318e-05
6.28606e-05
4.9776e-05
6.39706e-05
4.03212e-05
6.13388e-05
3.65626e-05
5.92003e-05
4.45552e-05
5.98096e-05
6.25468e-05
6.37203e-05
7.22122e-05
7.36189e-05
6.92579e-05
7.70024e-05
6.44001e-05
7.44761e-05
6.78141e-05
6.00581e-05
6.56168e-05
6.10222e-05
4.50203e-05
6.3369e-05
3.55637e-05
6.20163e-05
3.50588e-05
6.18356e-05
4.49974e-05
5.99623e-05
6.35061e-05
6.2317e-05
7.18078e-05
7.06697e-05
6.60499e-05
7.89969e-05
6.33275e-05
7.64661e-05
6.82656e-05
5.90036e-05
6.71986e-05
6.15641e-05
4.42643e-05
6.6633e-05
3.57659e-05
6.56637e-05
3.51637e-05
6.41214e-05
4.48379e-05
6.08266e-05
6.58332e-05
6.19108e-05
7.44512e-05
7.18532e-05
6.57306e-05
7.76557e-05
5.72162e-05
7.50302e-05
6.58914e-05
5.31012e-05
6.70209e-05
5.98223e-05
3.85398e-05
6.7054e-05
2.96727e-05
6.66451e-05
3.05546e-05
6.46168e-05
4.13705e-05
5.78221e-05
6.58031e-05
5.69164e-05
7.31048e-05
6.86519e-05
5.97116e-05
7.96339e-05
5.68465e-05
7.8289e-05
6.57431e-05
5.28673e-05
6.95054e-05
6.00506e-05
3.67271e-05
7.12653e-05
2.82706e-05
7.13056e-05
2.96599e-05
6.86365e-05
4.12294e-05
6.0224e-05
6.84098e-05
5.73779e-05
7.71497e-05
6.94203e-05
6.05387e-05
7.84882e-05
4.80188e-05
7.78593e-05
6.26218e-05
4.3669e-05
7.07068e-05
5.80324e-05
2.78986e-05
7.23303e-05
1.93404e-05
7.24327e-05
2.15313e-05
6.82047e-05
3.36626e-05
5.4457e-05
6.74874e-05
4.91185e-05
7.57252e-05
6.46094e-05
5.13203e-05
8.15919e-05
4.72579e-05
8.19801e-05
6.24786e-05
4.24907e-05
7.42136e-05
5.76761e-05
2.5853e-05
7.69004e-05
1.72604e-05
7.73188e-05
1.9986e-05
7.28065e-05
3.258e-05
5.77529e-05
7.12363e-05
4.89901e-05
8.05534e-05
6.54704e-05
5.15268e-05
8.10249e-05
3.20691e-05
8.47372e-05
5.90084e-05
2.65022e-05
7.92989e-05
5.55059e-05
8.52167e-06
8.15212e-05
8.50077e-07
8.1523e-05
4.30352e-06
7.43647e-05
1.77646e-05
4.84982e-05
7.09321e-05
3.42288e-05
8.12029e-05
5.93386e-05
3.67063e-05
8.36217e-05
3.21624e-05
8.85876e-05
5.67039e-05
2.61643e-05
8.30291e-05
5.30218e-05
7.88409e-06
8.47124e-05
-3.53989e-07
8.46944e-05
3.40747e-06
7.74749e-05
1.69029e-05
5.24264e-05
7.30997e-05
3.44438e-05
8.54481e-05
5.79349e-05
3.74682e-05
8.72216e-05
4.2981e-06
0.000100642
5.06124e-05
-6.50154e-06
9.95062e-05
4.89355e-05
-2.72364e-05
9.79362e-05
-3.22003e-05
9.65411e-05
-2.73102e-05
8.53726e-05
-1.3047e-05
3.84739e-05
7.79163e-05
7.14303e-06
9.38478e-05
4.8357e-05
9.55321e-06
-0.0149493
-0.0143242
-0.0138105
-0.0134352
-0.0132214
-0.0132053
-0.0133945
-0.0137667
-0.0143082
-0.0149759
-0.0157253
-0.016477
-0.017139
-0.0176072
-0.0178136
-0.0177666
-0.0174811
-0.0169855
-0.016346
-0.0156426
0.00141577
0.00152462
0.0014954
0.00138205
0.00123498
0.00111147
0.000935132
0.000702973
0.00039287
2.07927e-05
-0.000418782
-0.00087359
-0.00125299
-0.00146166
-0.00140886
-0.0010528
-0.000506919
0.000109809
0.000686481
0.00113719
-0.00310452
-0.00274839
-0.00250888
-0.00237042
-0.00238078
-0.00252189