/*--------------------------------*- C++ -*----------------------------------*\
| =========                 |                                                 |
| \\      /  F ield         | OpenFOAM: The Open Source CFD Toolbox           |
|  \\    /   O peration     | Version:  2.4.0                                 |
|   \\  /    A nd           | Web:      www.OpenFOAM.org                      |
|    \\/     M anipulation  |                                                 |
\*---------------------------------------------------------------------------*/
FoamFile
{
    version     2.0;
    format      ascii;
    class       volScalarField;
    location    "70";
    object      epsilon;
}
// * * * * * * * * * * * * * * * * * * * * * * * * * * * * * * * * * * * * * //

dimensions      [0 2 -3 0 0 0 0];

internalField   nonuniform List<scalar> 
283312
(
1.18681e-05
1.03768e-05
1.01397e-05
1.12107e-05
1.33308e-05
1.60581e-05
1.89001e-05
2.14869e-05
2.36552e-05
2.5361e-05
2.65844e-05
2.72873e-05
2.74381e-05
2.70555e-05
2.62032e-05
2.49054e-05
2.31424e-05
2.08843e-05
1.81802e-05
1.52715e-05
1.43751e-05
1.7552e-05
2.15594e-05
2.54784e-05
2.86614e-05
3.09147e-05
3.2405e-05
3.33782e-05
3.40571e-05
3.46594e-05
3.51097e-05
3.49118e-05
3.36058e-05
3.11823e-05
2.79366e-05
2.41622e-05
2.01822e-05
1.65973e-05
1.41694e-05
1.35184e-05
2.49307e-05
2.84542e-05
3.10741e-05
3.28561e-05
3.4012e-05
3.47005e-05
3.50668e-05
3.52882e-05
3.62848e-05
3.97397e-05
4.46915e-05
4.73089e-05
4.48968e-05
3.81635e-05
2.99264e-05
2.27673e-05
1.81016e-05
1.66377e-05
1.81178e-05
2.14568e-05
3.01015e-05
3.20105e-05
3.31953e-05
3.38673e-05
3.42305e-05
3.44338e-05
3.45926e-05
3.48985e-05
4.01799e-05
5.72145e-05
7.86558e-05
8.99667e-05
8.43044e-05
6.62262e-05
4.65478e-05
3.19569e-05
2.46365e-05
2.32411e-05
2.50943e-05
2.78914e-05
3.26502e-05
3.33586e-05
3.37545e-05
3.3984e-05
3.41416e-05
3.42617e-05
3.43933e-05
3.49708e-05
4.92845e-05
8.95485e-05
0.000131868
0.000152128
0.000144357
0.000117323
8.29683e-05
5.48172e-05
3.88147e-05
3.25828e-05
3.14351e-05
3.2042e-05
3.34127e-05
3.36271e-05
3.37548e-05
3.38435e-05
3.39242e-05
3.40103e-05
3.41326e-05
3.48518e-05
5.46449e-05
0.000105194
0.000149735
0.000172213
0.000162265
0.000128674
9.031e-05
6.04841e-05
4.34837e-05
3.62141e-05
3.39222e-05
3.35043e-05
3.37901e-05
3.36736e-05
3.36836e-05
3.37415e-05
3.38178e-05
3.39011e-05
3.4016e-05
3.48338e-05
5.57089e-05
0.000100115
0.000136558
0.000188133
0.000236963
0.000219016
0.000154738
9.57537e-05
6.05427e-05
4.39354e-05
3.71671e-05
3.47242e-05
3.36533e-05
3.36034e-05
3.36248e-05
3.3671e-05
3.37287e-05
3.37957e-05
3.38857e-05
3.41209e-05
4.1229e-05
5.36827e-05
6.21963e-05
0.000104075
0.000163808
0.000168078
0.000125429
8.08847e-05
5.37057e-05
4.09786e-05
3.59591e-05
3.42623e-05
3.35178e-05
3.35485e-05
3.35879e-05
3.36372e-05
3.36918e-05
3.3753e-05
3.38256e-05
3.39352e-05
3.41714e-05
3.28845e-05
3.02589e-05
4.16458e-05
7.05364e-05
8.21722e-05
6.85598e-05
5.12356e-05
4.06039e-05
3.58813e-05
3.42019e-05
3.37183e-05
3.34957e-05
3.35407e-05
3.35754e-05
3.36152e-05
3.36593e-05
3.37106e-05
3.37694e-05
3.38653e-05
3.38896e-05
3.21564e-05
2.95363e-05
2.84333e-05
3.51354e-05
4.06207e-05
3.92843e-05
3.62562e-05
3.44375e-05
3.37519e-05
3.35778e-05
3.35633e-05
3.35005e-05
3.35405e-05
3.35706e-05
3.36068e-05
3.36466e-05
3.36914e-05
3.37389e-05
3.38202e-05
3.38112e-05
3.20613e-05
3.01253e-05
2.67143e-05
2.67965e-05
2.94927e-05
3.14658e-05
3.25175e-05
3.30758e-05
3.33593e-05
3.3491e-05
3.3552e-05
3.35119e-05
3.35442e-05
3.35681e-05
3.35989e-05
3.36336e-05
3.36721e-05
3.37127e-05
3.37813e-05
3.37729e-05
3.20336e-05
3.07898e-05
2.74711e-05
2.64582e-05
2.83873e-05
3.06833e-05
3.22242e-05
3.30257e-05
3.33768e-05
3.3514e-05
3.35683e-05
3.35203e-05
3.35472e-05
3.35673e-05
3.35953e-05
3.36273e-05
3.36609e-05
3.36956e-05
3.37504e-05
3.37264e-05
3.23583e-05
3.10208e-05
2.69748e-05
2.60781e-05
2.82752e-05
3.07122e-05
3.22898e-05
3.30794e-05
3.34111e-05
3.35346e-05
3.35808e-05
3.35264e-05
3.35487e-05
3.35651e-05
3.35902e-05
3.36196e-05
3.36493e-05
3.36792e-05
3.37227e-05
3.3719e-05
3.25507e-05
3.23256e-05
2.8809e-05
2.75409e-05
2.9117e-05
3.11126e-05
3.24616e-05
3.31513e-05
3.34432e-05
3.35512e-05
3.35904e-05
3.35308e-05
3.35493e-05
3.35629e-05
3.35862e-05
3.36139e-05
3.36408e-05
3.36673e-05
3.37016e-05
3.36894e-05
3.17126e-05
2.97e-05
2.63974e-05
2.6586e-05
2.89612e-05
3.11676e-05
3.25285e-05
3.31941e-05
3.3467e-05
3.35644e-05
3.35979e-05
3.35325e-05
3.3548e-05
3.35592e-05
3.35808e-05
3.36069e-05
3.36312e-05
3.36519e-05
3.36734e-05
3.35901e-05
2.99947e-05
2.40839e-05
2.18168e-05
2.41476e-05
2.79649e-05
3.09081e-05
3.25146e-05
3.32222e-05
3.34874e-05
3.35748e-05
3.36027e-05
3.35345e-05
3.35461e-05
3.35551e-05
3.35754e-05
3.36005e-05
3.36236e-05
3.36425e-05
3.36607e-05
3.36712e-05
3.31864e-05
3.24978e-05
3.22327e-05
3.24709e-05
3.2892e-05
3.32285e-05
3.34454e-05
3.35532e-05
3.35947e-05
3.36075e-05
3.3612e-05
3.35329e-05
3.35424e-05
3.35497e-05
3.3569e-05
3.35932e-05
3.36149e-05
3.36317e-05
3.36468e-05
3.36605e-05
3.36482e-05
3.36209e-05
3.3609e-05
3.36214e-05
3.36359e-05
3.36366e-05
3.36318e-05
3.36248e-05
3.36183e-05
3.36141e-05
3.36128e-05
3.353e-05
3.35379e-05
3.3544e-05
3.35625e-05
3.35859e-05
3.36068e-05
3.36224e-05
3.36351e-05
3.3645e-05
3.36517e-05
3.36505e-05
3.36493e-05
3.36536e-05
3.36548e-05
3.36482e-05
3.36377e-05
3.3627e-05
3.36186e-05
3.36133e-05
3.36111e-05
3.35258e-05
3.35326e-05
3.35376e-05
3.35555e-05
3.35784e-05
3.35985e-05
3.3613e-05
3.36245e-05
3.36334e-05
3.36403e-05
3.36421e-05
3.36424e-05
3.36448e-05
3.36445e-05
3.36389e-05
3.36305e-05
3.36218e-05
3.36148e-05
3.36101e-05
3.36077e-05
3.35211e-05
3.35269e-05
3.35311e-05
3.35485e-05
3.35709e-05
3.35904e-05
3.36041e-05
3.36143e-05
3.36218e-05
3.3628e-05
3.36306e-05
3.36324e-05
3.36353e-05
3.36354e-05
3.36311e-05
3.36244e-05
3.36172e-05
3.36111e-05
3.36066e-05
3.36039e-05
3.35157e-05
3.35208e-05
3.35244e-05
3.35414e-05
3.35635e-05
3.35825e-05
3.35954e-05
3.36049e-05
3.36117e-05
3.36177e-05
3.3621e-05
3.36233e-05
3.36256e-05
3.36257e-05
3.36224e-05
3.36172e-05
3.36114e-05
3.36063e-05
3.3602e-05
3.35991e-05
3.35102e-05
3.35147e-05
3.35177e-05
3.35345e-05
3.35562e-05
3.35747e-05
3.35871e-05
3.35958e-05
3.36019e-05
3.36074e-05
3.3611e-05
3.3614e-05
3.36168e-05
3.36174e-05
3.3615e-05
3.3611e-05
3.36061e-05
3.36015e-05
3.35974e-05
3.35943e-05
3.35044e-05
3.35084e-05
3.35111e-05
3.35276e-05
3.35491e-05
3.35673e-05
3.35791e-05
3.35872e-05
3.35928e-05
3.35982e-05
3.3602e-05
3.36052e-05
3.36079e-05
3.36087e-05
3.36072e-05
3.36042e-05
3.36003e-05
3.35962e-05
3.35922e-05
3.3589e-05
3.34986e-05
3.35023e-05
3.35046e-05
3.35211e-05
3.35424e-05
3.35602e-05
3.35715e-05
3.35791e-05
3.35842e-05
3.35892e-05
3.35931e-05
3.35967e-05
3.35998e-05
3.36011e-05
3.36003e-05
3.35981e-05
3.35948e-05
3.35912e-05
3.35872e-05
3.35837e-05
3.34929e-05
3.34962e-05
3.34984e-05
3.35147e-05
3.35358e-05
3.35534e-05
3.35643e-05
3.35714e-05
3.35761e-05
3.35809e-05
3.35849e-05
3.35887e-05
3.35919e-05
3.35936e-05
3.35935e-05
3.3592e-05
3.35892e-05
3.3586e-05
3.35821e-05
3.35785e-05
3.34873e-05
3.34904e-05
3.34925e-05
3.35087e-05
3.35297e-05
3.3547e-05
3.35574e-05
3.35641e-05
3.35684e-05
3.35731e-05
3.35772e-05
3.35813e-05
3.35847e-05
3.35868e-05
3.35873e-05
3.35865e-05
3.35841e-05
3.35812e-05
3.35772e-05
3.35734e-05
3.34819e-05
3.34848e-05
3.34868e-05
3.3503e-05
3.35238e-05
3.35409e-05
3.35509e-05
3.35573e-05
3.35613e-05
3.35659e-05
3.357e-05
3.35742e-05
3.35779e-05
3.35803e-05
3.35814e-05
3.35811e-05
3.35793e-05
3.35766e-05
3.35725e-05
3.35684e-05
3.34766e-05
3.34794e-05
3.34815e-05
3.34977e-05
3.35183e-05
3.35352e-05
3.35449e-05
3.35508e-05
3.35545e-05
3.3559e-05
3.35633e-05
3.35677e-05
3.35716e-05
3.35744e-05
3.35761e-05
3.35763e-05
3.35748e-05
3.35723e-05
3.35681e-05
3.35637e-05
3.34717e-05
3.34744e-05
3.34766e-05
3.34928e-05
3.35133e-05
3.353e-05
3.35392e-05
3.35448e-05
3.35482e-05
3.35528e-05
3.35571e-05
3.35619e-05
3.3566e-05
3.35692e-05
3.35713e-05
3.35721e-05
3.3571e-05
3.35686e-05
3.35642e-05
3.35594e-05
3.34668e-05
3.34694e-05
3.34718e-05
3.34881e-05
3.35084e-05
3.35249e-05
3.35338e-05
3.3539e-05
3.35422e-05
3.35467e-05
3.35512e-05
3.35562e-05
3.35606e-05
3.35641e-05
3.35668e-05
3.35681e-05
3.35672e-05
3.35651e-05
3.35603e-05
3.35551e-05
3.34627e-05
3.34653e-05
3.34679e-05
3.34842e-05
3.35044e-05
3.35207e-05
3.35292e-05
3.35341e-05
3.35369e-05
3.35416e-05
3.35463e-05
3.35517e-05
3.35563e-05
3.35602e-05
3.35635e-05
3.35652e-05
3.35647e-05
3.35626e-05
3.35573e-05
3.35515e-05
3.34579e-05
3.34605e-05
3.34636e-05
3.348e-05
3.35e-05
3.35162e-05
3.35243e-05
3.35288e-05
3.35314e-05
3.35362e-05
3.35411e-05
3.35468e-05
3.35518e-05
3.35559e-05
3.35598e-05
3.3562e-05
3.35616e-05
3.35596e-05
3.35539e-05
3.35474e-05
3.34547e-05
3.34574e-05
3.34609e-05
3.34774e-05
3.34972e-05
3.35133e-05
3.35209e-05
3.3525e-05
3.35273e-05
3.35324e-05
3.35376e-05
3.35438e-05
3.3549e-05
3.35534e-05
3.3558e-05
3.35608e-05
3.35607e-05
3.35587e-05
3.35522e-05
3.3545e-05
3.345e-05
3.34528e-05
3.34569e-05
3.34735e-05
3.34931e-05
3.35092e-05
3.35164e-05
3.35201e-05
3.35222e-05
3.35275e-05
3.35332e-05
3.35397e-05
3.35452e-05
3.35499e-05
3.35551e-05
3.35584e-05
3.35585e-05
3.35564e-05
3.35492e-05
3.35411e-05
3.3448e-05
3.3451e-05
3.34558e-05
3.34723e-05
3.34917e-05
3.35077e-05
3.35143e-05
3.35175e-05
3.35194e-05
3.35251e-05
3.35311e-05
3.35383e-05
3.35441e-05
3.35493e-05
3.35553e-05
3.35592e-05
3.35597e-05
3.35575e-05
3.35493e-05
3.354e-05
3.34429e-05
3.34462e-05
3.34517e-05
3.34684e-05
3.34876e-05
3.35035e-05
3.35096e-05
3.35124e-05
3.3514e-05
3.35202e-05
3.35267e-05
3.35344e-05
3.35404e-05
3.3546e-05
3.35529e-05
3.35575e-05
3.35583e-05
3.35559e-05
3.35465e-05
3.3536e-05
3.34423e-05
3.3446e-05
3.34525e-05
3.34691e-05
3.3488e-05
3.35038e-05
3.35092e-05
3.35113e-05
3.35127e-05
3.35193e-05
3.35263e-05
3.35346e-05
3.35409e-05
3.35469e-05
3.35551e-05
3.35606e-05
3.35619e-05
3.35593e-05
3.35485e-05
3.35365e-05
3.34373e-05
3.34415e-05
3.3449e-05
3.34656e-05
3.34842e-05
3.34998e-05
3.35046e-05
3.35063e-05
3.35076e-05
3.35149e-05
3.35225e-05
3.35314e-05
3.35377e-05
3.35439e-05
3.35533e-05
3.35598e-05
3.35617e-05
3.35588e-05
3.35464e-05
3.35327e-05
3.34354e-05
3.34428e-05
3.34409e-05
3.34592e-05
3.34886e-05
3.34968e-05
3.35022e-05
3.35161e-05
3.35087e-05
3.35238e-05
3.35198e-05
3.35362e-05
3.35304e-05
3.35428e-05
3.35489e-05
3.35434e-05
3.35581e-05
3.35508e-05
3.35435e-05
3.35418e-05
1.28401e-05
1.14041e-05
1.13891e-05
1.27776e-05
1.52267e-05
1.82323e-05
2.12498e-05
2.39382e-05
2.61635e-05
2.78993e-05
2.91307e-05
2.98154e-05
2.99171e-05
2.94552e-05
2.84932e-05
2.70476e-05
2.50823e-05
2.25604e-05
1.95568e-05
1.63852e-05
1.60453e-05
1.96232e-05
2.38858e-05
2.78833e-05
3.10202e-05
3.31782e-05
3.45921e-05
3.55113e-05
3.61656e-05
3.67997e-05
3.73202e-05
3.7142e-05
3.57333e-05
3.30897e-05
2.95541e-05
2.54603e-05
2.12017e-05
1.74781e-05
1.5125e-05
1.47634e-05
2.69918e-05
3.04966e-05
3.30446e-05
3.4747e-05
3.58309e-05
3.64552e-05
3.67851e-05
3.69948e-05
3.81631e-05
4.23069e-05
4.82485e-05
5.14299e-05
4.87443e-05
4.11408e-05
3.19881e-05
2.42184e-05
1.93518e-05
1.80332e-05
1.98134e-05
2.34015e-05
3.19386e-05
3.37582e-05
3.48631e-05
3.54722e-05
3.57927e-05
3.59752e-05
3.613e-05
3.6468e-05
4.26804e-05
6.28965e-05
8.82343e-05
0.000101433
9.46324e-05
7.36139e-05
5.12448e-05
3.49148e-05
2.68202e-05
2.52133e-05
2.70305e-05
2.97859e-05
3.42898e-05
3.49101e-05
3.52544e-05
3.54546e-05
3.55969e-05
3.57126e-05
3.58488e-05
3.65107e-05
5.33093e-05
0.000101091
0.000151175
0.000174972
0.000165717
0.000133949
9.37659e-05
6.11385e-05
4.25803e-05
3.51438e-05
3.34615e-05
3.38114e-05
3.49139e-05
3.50728e-05
3.5175e-05
3.52509e-05
3.53275e-05
3.5415e-05
3.55447e-05
3.63745e-05
5.95385e-05
0.000119725
0.000172811
0.000199427
0.000187237
0.000147746
0.000102607
6.75091e-05
4.74458e-05
3.87183e-05
3.57971e-05
3.51118e-05
3.52303e-05
3.50731e-05
3.50691e-05
3.51206e-05
3.51956e-05
3.52805e-05
3.54018e-05
3.63515e-05
6.07868e-05
0.000113985
0.000158248
0.000220711
0.000276371
0.000251208
0.000174547
0.000106028
6.56575e-05
4.67442e-05
3.90546e-05
3.62725e-05
3.50433e-05
3.49738e-05
3.49886e-05
3.50313e-05
3.50887e-05
3.51575e-05
3.5252e-05
3.55149e-05
4.38542e-05
5.92076e-05
7.04095e-05
0.000122171
0.000191185
0.000192569
0.000140696
8.86986e-05
5.75944e-05
4.32151e-05
3.75939e-05
3.57019e-05
3.4882e-05
3.49043e-05
3.49405e-05
3.49875e-05
3.50415e-05
3.51038e-05
3.51793e-05
3.52956e-05
3.55792e-05
3.43793e-05
3.19074e-05
4.67473e-05
8.09823e-05
9.28455e-05
7.55943e-05
5.51345e-05
4.28946e-05
3.75348e-05
3.56414e-05
3.50929e-05
3.48472e-05
3.48874e-05
3.49199e-05
3.49579e-05
3.50014e-05
3.50534e-05
3.51142e-05
3.52153e-05
3.52554e-05
3.35335e-05
3.10109e-05
3.05095e-05
3.87372e-05
4.44614e-05
4.21668e-05
3.8287e-05
3.60361e-05
3.51809e-05
3.49481e-05
3.49136e-05
3.48452e-05
3.48817e-05
3.49103e-05
3.49449e-05
3.49837e-05
3.50286e-05
3.5077e-05
3.51621e-05
3.51655e-05
3.34343e-05
3.16949e-05
2.83156e-05
2.86656e-05
3.14368e-05
3.32082e-05
3.40592e-05
3.45022e-05
3.47321e-05
3.48411e-05
3.48925e-05
3.48518e-05
3.48814e-05
3.49041e-05
3.49336e-05
3.49671e-05
3.50053e-05
3.50462e-05
3.51173e-05
3.51195e-05
3.33914e-05
3.23807e-05
2.89933e-05
2.79954e-05
2.99578e-05
3.21994e-05
3.36645e-05
3.44112e-05
3.4732e-05
3.48549e-05
3.49028e-05
3.48571e-05
3.48818e-05
3.4901e-05
3.49276e-05
3.49583e-05
3.49911e-05
3.50256e-05
3.50815e-05
3.5067e-05
3.37355e-05
3.25657e-05
2.83708e-05
2.74981e-05
2.97538e-05
3.21732e-05
3.37016e-05
3.44503e-05
3.47583e-05
3.48704e-05
3.49116e-05
3.4861e-05
3.48815e-05
3.48971e-05
3.4921e-05
3.49489e-05
3.49774e-05
3.50069e-05
3.50507e-05
3.50573e-05
3.39496e-05
3.39682e-05
3.02742e-05
2.89678e-05
3.05755e-05
3.25531e-05
3.38596e-05
3.4514e-05
3.47853e-05
3.48835e-05
3.49186e-05
3.48637e-05
3.48808e-05
3.48938e-05
3.49158e-05
3.49419e-05
3.49675e-05
3.49932e-05
3.50271e-05
3.50245e-05
3.30552e-05
3.11487e-05
2.7739e-05
2.79831e-05
3.04086e-05
3.25987e-05
3.39191e-05
3.45515e-05
3.48054e-05
3.48942e-05
3.49242e-05
3.48644e-05
3.48785e-05
3.48893e-05
3.49096e-05
3.49341e-05
3.4957e-05
3.49767e-05
3.49976e-05
3.49187e-05
3.1162e-05
2.50566e-05
2.29037e-05
2.54782e-05
2.94164e-05
3.23505e-05
3.39085e-05
3.45784e-05
3.48238e-05
3.49029e-05
3.49276e-05
3.48652e-05
3.4876e-05
3.48847e-05
3.49038e-05
3.49272e-05
3.49488e-05
3.49666e-05
3.49841e-05
3.4994e-05
3.45122e-05
3.386e-05
3.36367e-05
3.38839e-05
3.42827e-05
3.45917e-05
3.47887e-05
3.48849e-05
3.49208e-05
3.49314e-05
3.49351e-05
3.48631e-05
3.48719e-05
3.48791e-05
3.48972e-05
3.49196e-05
3.49398e-05
3.49556e-05
3.49699e-05
3.4983e-05
3.49713e-05
3.49463e-05
3.49363e-05
3.49484e-05
3.49606e-05
3.496e-05
3.49544e-05
3.49471e-05
3.49406e-05
3.49363e-05
3.49351e-05
3.48599e-05
3.48672e-05
3.48732e-05
3.48905e-05
3.49122e-05
3.49315e-05
3.4946e-05
3.49581e-05
3.49673e-05
3.49737e-05
3.49723e-05
3.49712e-05
3.49753e-05
3.49758e-05
3.4969e-05
3.49587e-05
3.49483e-05
3.49402e-05
3.49351e-05
3.49329e-05
3.48556e-05
3.48619e-05
3.48668e-05
3.48835e-05
3.49046e-05
3.49231e-05
3.49367e-05
3.49475e-05
3.49559e-05
3.49624e-05
3.49638e-05
3.49639e-05
3.4966e-05
3.49653e-05
3.49596e-05
3.49513e-05
3.49429e-05
3.49362e-05
3.49316e-05
3.49294e-05
3.48509e-05
3.48562e-05
3.48604e-05
3.48766e-05
3.48972e-05
3.49151e-05
3.49277e-05
3.49374e-05
3.49444e-05
3.49503e-05
3.49525e-05
3.49541e-05
3.49566e-05
3.49563e-05
3.49519e-05
3.49453e-05
3.49383e-05
3.49324e-05
3.4928e-05
3.49254e-05
3.48456e-05
3.48503e-05
3.48539e-05
3.48697e-05
3.489e-05
3.49073e-05
3.49193e-05
3.49282e-05
3.49346e-05
3.49403e-05
3.49432e-05
3.49452e-05
3.49471e-05
3.49468e-05
3.49434e-05
3.49382e-05
3.49326e-05
3.49276e-05
3.49235e-05
3.49207e-05
3.48402e-05
3.48443e-05
3.48475e-05
3.4863e-05
3.48829e-05
3.48998e-05
3.49111e-05
3.49193e-05
3.4925e-05
3.49302e-05
3.49335e-05
3.49361e-05
3.49385e-05
3.49387e-05
3.49362e-05
3.49321e-05
3.49273e-05
3.49229e-05
3.49189e-05
3.49159e-05
3.48347e-05
3.48383e-05
3.48411e-05
3.48565e-05
3.48761e-05
3.48926e-05
3.49035e-05
3.4911e-05
3.49163e-05
3.49214e-05
3.49248e-05
3.49276e-05
3.49299e-05
3.49304e-05
3.49287e-05
3.49256e-05
3.49216e-05
3.49177e-05
3.49139e-05
3.49108e-05
3.48292e-05
3.48325e-05
3.4835e-05
3.48502e-05
3.48696e-05
3.48858e-05
3.48961e-05
3.49032e-05
3.4908e-05
3.49127e-05
3.49163e-05
3.49195e-05
3.49221e-05
3.4923e-05
3.4922e-05
3.49197e-05
3.49163e-05
3.49128e-05
3.4909e-05
3.49058e-05
3.48237e-05
3.48267e-05
3.48291e-05
3.48442e-05
3.48634e-05
3.48793e-05
3.48892e-05
3.48959e-05
3.49003e-05
3.49048e-05
3.49084e-05
3.49118e-05
3.49146e-05
3.49158e-05
3.49154e-05
3.49138e-05
3.4911e-05
3.49078e-05
3.49041e-05
3.49008e-05
3.48185e-05
3.48213e-05
3.48235e-05
3.48385e-05
3.48575e-05
3.48732e-05
3.48827e-05
3.48889e-05
3.4893e-05
3.48974e-05
3.49011e-05
3.49048e-05
3.49077e-05
3.49094e-05
3.49095e-05
3.49085e-05
3.49061e-05
3.49032e-05
3.48995e-05
3.48959e-05
3.48134e-05
3.4816e-05
3.48182e-05
3.48331e-05
3.4852e-05
3.48674e-05
3.48766e-05
3.48825e-05
3.48862e-05
3.48905e-05
3.48943e-05
3.48981e-05
3.49012e-05
3.49032e-05
3.49039e-05
3.49034e-05
3.49015e-05
3.48988e-05
3.4895e-05
3.48913e-05
3.48085e-05
3.4811e-05
3.48132e-05
3.48281e-05
3.48468e-05
3.48621e-05
3.48709e-05
3.48764e-05
3.48799e-05
3.48841e-05
3.48879e-05
3.48919e-05
3.48953e-05
3.48976e-05
3.48989e-05
3.48988e-05
3.48972e-05
3.48948e-05
3.48909e-05
3.48869e-05
3.4804e-05
3.48064e-05
3.48087e-05
3.48236e-05
3.48421e-05
3.48572e-05
3.48656e-05
3.48708e-05
3.4874e-05
3.48782e-05
3.48822e-05
3.48864e-05
3.489e-05
3.48927e-05
3.48944e-05
3.48948e-05
3.48935e-05
3.48913e-05
3.48871e-05
3.48828e-05
3.47994e-05
3.48018e-05
3.48043e-05
3.48192e-05
3.48376e-05
3.48525e-05
3.48606e-05
3.48654e-05
3.48684e-05
3.48726e-05
3.48766e-05
3.48812e-05
3.4885e-05
3.48879e-05
3.48901e-05
3.4891e-05
3.489e-05
3.48878e-05
3.48834e-05
3.48788e-05
3.47957e-05
3.4798e-05
3.48007e-05
3.48157e-05
3.48339e-05
3.48486e-05
3.48563e-05
3.48608e-05
3.48635e-05
3.48679e-05
3.48721e-05
3.48769e-05
3.4881e-05
3.48842e-05
3.4887e-05
3.48883e-05
3.48875e-05
3.48855e-05
3.48807e-05
3.48755e-05
3.47913e-05
3.47937e-05
3.47967e-05
3.48117e-05
3.48298e-05
3.48444e-05
3.48517e-05
3.48559e-05
3.48584e-05
3.48629e-05
3.48673e-05
3.48724e-05
3.48767e-05
3.48802e-05
3.48835e-05
3.48852e-05
3.48847e-05
3.48827e-05
3.48775e-05
3.48717e-05
3.47884e-05
3.47909e-05
3.47943e-05
3.48094e-05
3.48273e-05
3.48418e-05
3.48486e-05
3.48525e-05
3.48547e-05
3.48594e-05
3.48641e-05
3.48696e-05
3.48741e-05
3.4878e-05
3.48818e-05
3.4884e-05
3.48838e-05
3.48818e-05
3.48759e-05
3.48695e-05
3.47841e-05
3.47867e-05
3.47907e-05
3.48058e-05
3.48236e-05
3.4838e-05
3.48445e-05
3.4848e-05
3.485e-05
3.4855e-05
3.486e-05
3.48658e-05
3.48706e-05
3.48747e-05
3.48791e-05
3.48818e-05
3.48817e-05
3.48796e-05
3.48731e-05
3.48659e-05
3.47823e-05
3.47852e-05
3.47897e-05
3.48047e-05
3.48223e-05
3.48366e-05
3.48427e-05
3.48457e-05
3.48475e-05
3.48528e-05
3.48581e-05
3.48645e-05
3.48696e-05
3.48741e-05
3.48793e-05
3.48825e-05
3.48827e-05
3.48806e-05
3.48732e-05
3.4865e-05
3.47777e-05
3.47808e-05
3.4786e-05
3.48012e-05
3.48186e-05
3.48328e-05
3.48384e-05
3.48411e-05
3.48427e-05
3.48483e-05
3.48541e-05
3.4861e-05
3.48663e-05
3.48711e-05
3.48771e-05
3.48809e-05
3.48814e-05
3.48791e-05
3.48706e-05
3.48613e-05
3.47773e-05
3.47807e-05
3.47867e-05
3.48018e-05
3.4819e-05
3.48331e-05
3.4838e-05
3.48402e-05
3.48415e-05
3.48476e-05
3.48538e-05
3.48612e-05
3.48667e-05
3.4872e-05
3.48791e-05
3.48837e-05
3.48846e-05
3.48821e-05
3.48724e-05
3.48618e-05
3.47729e-05
3.47767e-05
3.47837e-05
3.47988e-05
3.48156e-05
3.48296e-05
3.4834e-05
3.48358e-05
3.4837e-05
3.48437e-05
3.48505e-05
3.48584e-05
3.48639e-05
3.48693e-05
3.48775e-05
3.4883e-05
3.48844e-05
3.48816e-05
3.48705e-05
3.48585e-05
3.47771e-05
3.47843e-05
3.47827e-05
3.47991e-05
3.48258e-05
3.48328e-05
3.48375e-05
3.48507e-05
3.48438e-05
3.48583e-05
3.48543e-05
3.48699e-05
3.4864e-05
3.4876e-05
3.48818e-05
3.48758e-05
3.4889e-05
3.48813e-05
3.48741e-05
3.48728e-05
1.38425e-05
1.25127e-05
1.277e-05
1.45084e-05
1.7296e-05
2.05574e-05
2.37294e-05
2.65028e-05
2.87717e-05
3.05271e-05
3.1759e-05
3.24201e-05
3.2468e-05
3.1922e-05
3.08441e-05
2.92372e-05
2.70482e-05
2.42369e-05
2.09164e-05
1.74883e-05
1.78538e-05
2.18219e-05
2.6301e-05
3.03377e-05
3.34026e-05
3.54655e-05
3.68023e-05
3.76666e-05
3.82982e-05
3.89757e-05
3.95842e-05
3.9434e-05
3.7912e-05
3.50224e-05
3.11633e-05
2.67265e-05
2.21887e-05
1.83571e-05
1.61322e-05
1.61144e-05
2.91041e-05
3.25695e-05
3.50354e-05
3.66536e-05
3.76631e-05
3.82259e-05
3.85223e-05
3.8724e-05
4.00927e-05
4.50368e-05
5.21147e-05
5.5919e-05
5.28891e-05
4.42882e-05
3.41385e-05
2.57279e-05
2.06739e-05
1.95245e-05
2.16081e-05
2.54236e-05
3.38051e-05
3.55287e-05
3.65516e-05
3.70991e-05
3.73801e-05
3.75454e-05
3.76985e-05
3.80739e-05
4.53528e-05
6.92614e-05
9.90735e-05
0.000114341
0.000106098
8.16789e-05
5.62997e-05
3.80653e-05
2.91276e-05
2.72742e-05
2.90282e-05
3.17214e-05
3.59566e-05
3.64883e-05
3.6783e-05
3.69562e-05
3.70859e-05
3.71985e-05
3.73407e-05
3.80977e-05
5.77336e-05
0.000114261
0.000173302
0.000201052
0.000189938
0.00015261
0.000105708
6.80131e-05
4.65957e-05
3.78191e-05
3.55453e-05
3.56156e-05
3.64459e-05
3.65514e-05
3.66302e-05
3.6695e-05
3.67691e-05
3.68587e-05
3.69963e-05
3.7951e-05
6.49567e-05
0.000136412
0.000199425
0.000230684
0.000215697
0.00016928
0.000116294
7.51699e-05
5.1662e-05
4.13214e-05
3.77183e-05
3.67517e-05
3.67049e-05
3.65094e-05
3.6493e-05
3.65392e-05
3.66136e-05
3.67003e-05
3.68285e-05
3.79283e-05
6.64269e-05
0.000129977
0.000183503
0.000258685
0.000321454
0.000287201
0.000196237
0.000117044
7.10231e-05
4.96355e-05
4.09805e-05
3.78533e-05
3.64708e-05
3.63836e-05
3.63927e-05
3.64326e-05
3.64904e-05
3.65611e-05
3.66602e-05
3.69536e-05
4.66964e-05
6.55275e-05
8.00264e-05
0.000143542
0.000222594
0.000219952
0.000157315
9.69876e-05
6.16236e-05
4.54998e-05
3.92619e-05
3.71764e-05
3.62861e-05
3.6301e-05
3.63344e-05
3.63796e-05
3.64334e-05
3.6497e-05
3.65755e-05
3.66985e-05
3.70345e-05
3.59518e-05
3.3688e-05
5.26939e-05
9.29823e-05
0.000104679
8.31478e-05
5.92048e-05
4.52429e-05
3.92238e-05
3.71167e-05
3.65061e-05
3.62399e-05
3.62757e-05
3.63063e-05
3.6343e-05
3.63862e-05
3.64391e-05
3.65019e-05
3.66082e-05
3.66646e-05
3.49671e-05
3.25729e-05
3.28134e-05
4.27645e-05
4.86277e-05
4.51984e-05
4.03803e-05
3.76743e-05
3.66476e-05
3.63578e-05
3.63047e-05
3.62317e-05
3.62651e-05
3.62923e-05
3.63257e-05
3.63637e-05
3.64089e-05
3.64583e-05
3.65472e-05
3.65632e-05
3.48655e-05
3.33695e-05
3.00396e-05
3.06792e-05
3.34897e-05
3.50148e-05
3.56452e-05
3.59684e-05
3.6145e-05
3.62322e-05
3.62748e-05
3.62339e-05
3.62611e-05
3.62828e-05
3.63111e-05
3.63438e-05
3.63817e-05
3.64231e-05
3.64966e-05
3.65097e-05
3.48057e-05
3.40726e-05
3.06093e-05
2.96181e-05
3.15961e-05
3.37663e-05
3.51477e-05
3.58376e-05
3.61285e-05
3.62377e-05
3.62797e-05
3.62364e-05
3.62592e-05
3.62775e-05
3.6303e-05
3.63324e-05
3.63646e-05
3.63991e-05
3.64562e-05
3.64513e-05
3.51712e-05
3.42009e-05
2.98428e-05
2.89884e-05
3.12921e-05
3.36828e-05
3.51566e-05
3.5863e-05
3.61474e-05
3.62486e-05
3.62851e-05
3.62381e-05
3.6257e-05
3.6272e-05
3.62947e-05
3.63213e-05
3.6349e-05
3.63781e-05
3.64222e-05
3.64396e-05
3.54112e-05
3.57102e-05
3.18163e-05
3.04618e-05
3.20916e-05
3.40419e-05
3.53011e-05
3.59188e-05
3.61697e-05
3.62585e-05
3.62897e-05
3.62394e-05
3.62551e-05
3.62676e-05
3.62884e-05
3.63131e-05
3.63375e-05
3.63626e-05
3.63962e-05
3.64036e-05
3.44583e-05
3.26828e-05
2.91527e-05
2.94469e-05
3.19133e-05
3.40781e-05
3.53534e-05
3.59513e-05
3.61865e-05
3.62668e-05
3.62935e-05
3.62389e-05
3.6252e-05
3.62624e-05
3.62816e-05
3.63045e-05
3.63261e-05
3.6345e-05
3.63653e-05
3.62909e-05
3.23684e-05
2.60648e-05
2.40416e-05
2.68688e-05
3.09221e-05
3.38388e-05
3.53448e-05
3.59767e-05
3.62027e-05
3.62739e-05
3.62956e-05
3.62389e-05
3.62488e-05
3.62572e-05
3.62752e-05
3.6297e-05
3.63172e-05
3.63341e-05
3.63509e-05
3.63604e-05
3.58821e-05
3.52669e-05
3.50838e-05
3.53381e-05
3.57135e-05
3.59961e-05
3.6174e-05
3.62591e-05
3.62899e-05
3.62985e-05
3.63014e-05
3.62362e-05
3.62443e-05
3.62514e-05
3.62683e-05
3.62891e-05
3.63079e-05
3.63227e-05
3.63365e-05
3.63491e-05
3.63378e-05
3.6315e-05
3.63067e-05
3.63184e-05
3.63284e-05
3.63266e-05
3.63204e-05
3.63128e-05
3.63062e-05
3.63019e-05
3.63006e-05
3.62326e-05
3.62394e-05
3.62453e-05
3.62615e-05
3.62815e-05
3.62993e-05
3.63129e-05
3.63243e-05
3.63331e-05
3.63391e-05
3.63375e-05
3.63366e-05
3.63404e-05
3.63402e-05
3.63333e-05
3.63231e-05
3.6313e-05
3.63052e-05
3.63002e-05
3.62981e-05
3.62282e-05
3.6234e-05
3.6239e-05
3.62545e-05
3.62739e-05
3.62909e-05
3.63035e-05
3.63138e-05
3.63218e-05
3.63279e-05
3.63289e-05
3.63289e-05
3.63306e-05
3.63295e-05
3.63237e-05
3.63156e-05
3.63074e-05
3.63009e-05
3.62965e-05
3.62943e-05
3.62235e-05
3.62284e-05
3.62326e-05
3.62476e-05
3.62665e-05
3.62829e-05
3.62946e-05
3.63037e-05
3.63103e-05
3.63159e-05
3.63178e-05
3.63192e-05
3.63214e-05
3.63207e-05
3.63162e-05
3.63096e-05
3.63028e-05
3.6297e-05
3.62928e-05
3.62903e-05
3.62183e-05
3.62225e-05
3.62262e-05
3.62409e-05
3.62594e-05
3.62752e-05
3.62863e-05
3.62947e-05
3.63007e-05
3.63061e-05
3.63086e-05
3.63103e-05
3.63119e-05
3.63112e-05
3.63077e-05
3.63026e-05
3.6297e-05
3.62921e-05
3.62882e-05
3.62856e-05
3.6213e-05
3.62167e-05
3.622e-05
3.62343e-05
3.62525e-05
3.62678e-05
3.62783e-05
3.6286e-05
3.62913e-05
3.62962e-05
3.62991e-05
3.63015e-05
3.63036e-05
3.63034e-05
3.63007e-05
3.62966e-05
3.62919e-05
3.62875e-05
3.62837e-05
3.62808e-05
3.62076e-05
3.6211e-05
3.62138e-05
3.6228e-05
3.62458e-05
3.62609e-05
3.62708e-05
3.62779e-05
3.62829e-05
3.62876e-05
3.62907e-05
3.62932e-05
3.62952e-05
3.62953e-05
3.62934e-05
3.62902e-05
3.62863e-05
3.62824e-05
3.62788e-05
3.62759e-05
3.62024e-05
3.62054e-05
3.6208e-05
3.6222e-05
3.62396e-05
3.62542e-05
3.62637e-05
3.62703e-05
3.62748e-05
3.62793e-05
3.62825e-05
3.62854e-05
3.62876e-05
3.62882e-05
3.62869e-05
3.62845e-05
3.62811e-05
3.62776e-05
3.6274e-05
3.6271e-05
3.61971e-05
3.61999e-05
3.62024e-05
3.62162e-05
3.62336e-05
3.6248e-05
3.62571e-05
3.62632e-05
3.62674e-05
3.62717e-05
3.6275e-05
3.6278e-05
3.62803e-05
3.62812e-05
3.62806e-05
3.62787e-05
3.62759e-05
3.62728e-05
3.62693e-05
3.62662e-05
3.61922e-05
3.61947e-05
3.61971e-05
3.62108e-05
3.6228e-05
3.62422e-05
3.62508e-05
3.62566e-05
3.62605e-05
3.62646e-05
3.62679e-05
3.62712e-05
3.62738e-05
3.6275e-05
3.62749e-05
3.62736e-05
3.62712e-05
3.62684e-05
3.62648e-05
3.62616e-05
3.61874e-05
3.61898e-05
3.61921e-05
3.62057e-05
3.62228e-05
3.62367e-05
3.6245e-05
3.62505e-05
3.6254e-05
3.6258e-05
3.62614e-05
3.62648e-05
3.62676e-05
3.62691e-05
3.62695e-05
3.62687e-05
3.62667e-05
3.62641e-05
3.62606e-05
3.62572e-05
3.61828e-05
3.61851e-05
3.61874e-05
3.6201e-05
3.62179e-05
3.62316e-05
3.62396e-05
3.62447e-05
3.6248e-05
3.6252e-05
3.62554e-05
3.6259e-05
3.62619e-05
3.62638e-05
3.62647e-05
3.62643e-05
3.62626e-05
3.62603e-05
3.62566e-05
3.6253e-05
3.61786e-05
3.61808e-05
3.61832e-05
3.61968e-05
3.62135e-05
3.6227e-05
3.62347e-05
3.62395e-05
3.62425e-05
3.62464e-05
3.625e-05
3.62538e-05
3.62569e-05
3.62591e-05
3.62604e-05
3.62605e-05
3.62591e-05
3.62569e-05
3.62531e-05
3.62492e-05
3.61744e-05
3.61766e-05
3.61791e-05
3.61927e-05
3.62093e-05
3.62226e-05
3.62299e-05
3.62344e-05
3.62372e-05
3.62412e-05
3.62448e-05
3.62488e-05
3.62522e-05
3.62546e-05
3.62564e-05
3.62569e-05
3.62557e-05
3.62536e-05
3.62496e-05
3.62454e-05
3.61709e-05
3.61731e-05
3.61758e-05
3.61894e-05
3.62058e-05
3.6219e-05
3.62259e-05
3.62302e-05
3.62328e-05
3.62368e-05
3.62406e-05
3.62448e-05
3.62484e-05
3.62511e-05
3.62534e-05
3.62543e-05
3.62534e-05
3.62514e-05
3.6247e-05
3.62424e-05
3.61669e-05
3.61691e-05
3.61721e-05
3.61857e-05
3.6202e-05
3.62151e-05
3.62217e-05
3.62257e-05
3.6228e-05
3.62321e-05
3.62361e-05
3.62407e-05
3.62444e-05
3.62474e-05
3.62501e-05
3.62513e-05
3.62507e-05
3.62487e-05
3.6244e-05
3.62389e-05
3.61643e-05
3.61666e-05
3.61699e-05
3.61836e-05
3.61997e-05
3.62127e-05
3.62189e-05
3.62225e-05
3.62246e-05
3.62289e-05
3.62331e-05
3.6238e-05
3.6242e-05
3.62453e-05
3.62485e-05
3.62502e-05
3.62497e-05
3.62478e-05
3.62425e-05
3.62368e-05
3.61604e-05
3.61628e-05
3.61666e-05
3.61803e-05
3.61963e-05
3.62092e-05
3.62151e-05
3.62184e-05
3.62203e-05
3.62249e-05
3.62294e-05
3.62346e-05
3.62387e-05
3.62423e-05
3.6246e-05
3.62481e-05
3.62478e-05
3.62458e-05
3.62399e-05
3.62335e-05
3.61588e-05
3.61614e-05
3.61657e-05
3.61793e-05
3.61952e-05
3.6208e-05
3.62134e-05
3.62164e-05
3.62181e-05
3.62229e-05
3.62277e-05
3.62333e-05
3.62378e-05
3.62417e-05
3.62461e-05
3.62487e-05
3.62486e-05
3.62465e-05
3.62399e-05
3.62327e-05
3.61547e-05
3.61575e-05
3.61623e-05
3.61761e-05
3.61917e-05
3.62045e-05
3.62095e-05
3.62122e-05
3.62137e-05
3.62189e-05
3.6224e-05
3.62301e-05
3.62347e-05
3.62389e-05
3.6244e-05
3.62471e-05
3.62473e-05
3.62451e-05
3.62376e-05
3.62294e-05
3.61544e-05
3.61575e-05
3.6163e-05
3.61767e-05
3.61921e-05
3.62048e-05
3.62092e-05
3.62114e-05
3.62127e-05
3.62183e-05
3.62238e-05
3.62303e-05
3.62351e-05
3.62397e-05
3.62458e-05
3.62496e-05
3.62502e-05
3.62478e-05
3.62391e-05
3.62298e-05
3.61505e-05
3.6154e-05
3.61604e-05
3.6174e-05
3.61891e-05
3.62017e-05
3.62057e-05
3.62075e-05
3.62087e-05
3.62148e-05
3.62208e-05
3.62278e-05
3.62326e-05
3.62374e-05
3.62444e-05
3.6249e-05
3.625e-05
3.62474e-05
3.62375e-05
3.62269e-05
3.61598e-05
3.61667e-05
3.61654e-05
3.61801e-05
3.62042e-05
3.62101e-05
3.62142e-05
3.62267e-05
3.62202e-05
3.62342e-05
3.623e-05
3.62448e-05
3.62389e-05
3.62504e-05
3.62558e-05
3.62494e-05
3.62612e-05
3.62534e-05
3.62465e-05
3.62454e-05
1.48777e-05
1.37116e-05
1.4293e-05
1.64103e-05
1.95385e-05
2.30312e-05
2.63349e-05
2.91741e-05
3.14718e-05
3.32365e-05
3.44626e-05
3.50961e-05
3.5087e-05
3.44536e-05
3.32531e-05
3.14699e-05
2.90328e-05
2.59039e-05
2.22497e-05
1.85763e-05
1.98096e-05
2.41507e-05
2.88038e-05
3.28393e-05
3.58085e-05
3.77724e-05
3.90303e-05
3.98399e-05
4.04528e-05
4.11879e-05
4.1905e-05
4.17921e-05
4.0145e-05
3.69816e-05
3.27654e-05
2.79618e-05
2.31469e-05
1.92424e-05
1.7203e-05
1.75843e-05
3.1271e-05
3.46759e-05
3.70489e-05
3.85783e-05
3.95118e-05
4.00168e-05
4.02831e-05
4.04807e-05