/*--------------------------------*- C++ -*----------------------------------*\
| =========                 |                                                 |
| \\      /  F ield         | OpenFOAM: The Open Source CFD Toolbox           |
|  \\    /   O peration     | Version:  2.4.0                                 |
|   \\  /    A nd           | Web:      www.OpenFOAM.org                      |
|    \\/     M anipulation  |                                                 |
\*---------------------------------------------------------------------------*/
FoamFile
{
    version     2.0;
    format      ascii;
    class       volScalarField;
    location    "70";
    object      k;
}
// * * * * * * * * * * * * * * * * * * * * * * * * * * * * * * * * * * * * * //

dimensions      [0 2 -2 0 0 0 0];

internalField   nonuniform List<scalar> 
283312
(
1.50082e-05
1.33019e-05
1.28549e-05
1.3811e-05
1.59994e-05
1.89948e-05
2.22527e-05
2.53126e-05
2.79231e-05
2.99713e-05
3.13993e-05
3.2166e-05
3.22619e-05
3.17379e-05
3.06862e-05
2.91526e-05
2.71405e-05
2.46376e-05
2.16931e-05
1.85296e-05
1.64235e-05
1.99124e-05
2.44147e-05
2.89723e-05
3.28513e-05
3.5745e-05
3.77386e-05
3.90423e-05
3.98703e-05
4.04145e-05
4.06217e-05
4.00652e-05
3.83069e-05
3.5328e-05
3.14801e-05
2.71891e-05
2.28067e-05
1.89001e-05
1.62095e-05
1.53948e-05
2.83238e-05
3.27623e-05
3.61739e-05
3.85545e-05
4.01148e-05
4.10456e-05
4.1536e-05
4.18178e-05
4.30091e-05
4.67857e-05
5.22907e-05
5.56601e-05
5.36549e-05
4.64101e-05
3.68288e-05
2.80649e-05
2.18733e-05
1.93425e-05
2.04264e-05
2.40206e-05
3.56187e-05
3.81461e-05
3.9718e-05
4.06114e-05
4.10907e-05
4.13416e-05
4.15092e-05
4.18764e-05
4.92243e-05
6.99666e-05
9.59359e-05
0.00011157
0.000108085
8.84435e-05
6.4343e-05
4.42709e-05
3.24345e-05
2.85056e-05
2.96134e-05
3.27061e-05
3.97153e-05
4.04256e-05
4.08352e-05
4.10797e-05
4.1244e-05
4.13598e-05
4.14788e-05
4.23025e-05
6.50032e-05
0.000116941
0.000169092
0.000196391
0.000191459
0.000161821
0.000119625
8.10911e-05
5.60399e-05
4.39744e-05
3.99277e-05
3.94172e-05
4.09737e-05
4.09676e-05
4.10143e-05
4.10813e-05
4.11537e-05
4.12283e-05
4.13342e-05
4.25061e-05
7.97097e-05
0.000147801
0.000200162
0.00022756
0.000220156
0.000183309
0.000137036
9.53637e-05
6.6638e-05
5.10845e-05
4.42808e-05
4.18494e-05
4.19262e-05
4.12317e-05
4.10515e-05
4.10546e-05
4.11116e-05
4.11807e-05
4.12803e-05
4.26821e-05
8.54882e-05
0.000144255
0.000180647
0.000242896
0.000331165
0.000347597
0.000278109
0.000184585
0.000112653
7.15616e-05
5.24217e-05
4.47982e-05
4.14546e-05
4.10742e-05
4.09975e-05
4.10193e-05
4.10674e-05
4.11237e-05
4.11974e-05
4.15173e-05
5.62623e-05
6.95703e-05
7.31776e-05
0.000125411
0.000233597
0.000284529
0.000241115
0.000161387
9.83564e-05
6.37546e-05
4.87593e-05
4.33116e-05
4.10129e-05
4.09553e-05
4.09652e-05
4.1007e-05
4.10568e-05
4.11096e-05
4.11688e-05
4.12588e-05
4.15641e-05
3.69896e-05
3.02498e-05
4.3416e-05
9.41635e-05
0.000133567
0.000122255
8.86854e-05
6.22194e-05
4.86597e-05
4.33118e-05
4.15803e-05
4.09109e-05
4.09432e-05
4.09678e-05
4.10051e-05
4.10467e-05
4.10917e-05
4.11401e-05
4.12183e-05
4.11615e-05
3.5615e-05
2.85665e-05
2.62701e-05
3.90432e-05
5.446e-05
5.57427e-05
4.96112e-05
4.44989e-05
4.20689e-05
4.12338e-05
4.10227e-05
4.09144e-05
4.09524e-05
4.0975e-05
4.10096e-05
4.10482e-05
4.10887e-05
4.11285e-05
4.11962e-05
4.11109e-05
3.50872e-05
2.84039e-05
2.35003e-05
2.54633e-05
3.22026e-05
3.70706e-05
3.93074e-05
4.02514e-05
4.06726e-05
4.08631e-05
4.09511e-05
4.09356e-05
4.09657e-05
4.09824e-05
4.10125e-05
4.10473e-05
4.1083e-05
4.11181e-05
4.11767e-05
4.10986e-05
3.47324e-05
2.84691e-05
2.37122e-05
2.40677e-05
2.90895e-05
3.44513e-05
3.79988e-05
3.98083e-05
4.05791e-05
4.08682e-05
4.0973e-05
4.09518e-05
4.09754e-05
4.09884e-05
4.10162e-05
4.10493e-05
4.10818e-05
4.1113e-05
4.11612e-05
4.1073e-05
3.47369e-05
2.82994e-05
2.30385e-05
2.35839e-05
2.88412e-05
3.43811e-05
3.80335e-05
3.98677e-05
4.06273e-05
4.09012e-05
4.09953e-05
4.09642e-05
4.09825e-05
4.09919e-05
4.10174e-05
4.10486e-05
4.10782e-05
4.11062e-05
4.11457e-05
4.10809e-05
3.47342e-05
2.91545e-05
2.45042e-05
2.49011e-05
2.96598e-05
3.4796e-05
3.82287e-05
3.99604e-05
4.06743e-05
4.0928e-05
4.10125e-05
4.09735e-05
4.09873e-05
4.09939e-05
4.1018e-05
4.10482e-05
4.10761e-05
4.11018e-05
4.11343e-05
4.10688e-05
3.39767e-05
2.69658e-05
2.27018e-05
2.45239e-05
2.99742e-05
3.51607e-05
3.84582e-05
4.00754e-05
4.07277e-05
4.09541e-05
4.10271e-05
4.09803e-05
4.09897e-05
4.09938e-05
4.10165e-05
4.10456e-05
4.10714e-05
4.10921e-05
4.1113e-05
4.10027e-05
3.40182e-05
2.45098e-05
2.10746e-05
2.45326e-05
3.07659e-05
3.59638e-05
3.89568e-05
4.03099e-05
4.0821e-05
4.09892e-05
4.10414e-05
4.09867e-05
4.09909e-05
4.09925e-05
4.10141e-05
4.10427e-05
4.10678e-05
4.10872e-05
4.11054e-05
4.11153e-05
4.02109e-05
3.92199e-05
3.89923e-05
3.94278e-05
4.00366e-05
4.04922e-05
4.07994e-05
4.09616e-05
4.10286e-05
4.10516e-05
4.10605e-05
4.09879e-05
4.09896e-05
4.09896e-05
4.10104e-05
4.10382e-05
4.10622e-05
4.10799e-05
4.1095e-05
4.1109e-05
4.10854e-05
4.10506e-05
4.10401e-05
4.10579e-05
4.10772e-05
4.10796e-05
4.10771e-05
4.10723e-05
4.10677e-05
4.10649e-05
4.10652e-05
4.09872e-05
4.09871e-05
4.09857e-05
4.10059e-05
4.10333e-05
4.10568e-05
4.10734e-05
4.10865e-05
4.10968e-05
4.11036e-05
4.11029e-05
4.11016e-05
4.11057e-05
4.1107e-05
4.11e-05
4.10894e-05
4.10789e-05
4.10712e-05
4.10668e-05
4.10658e-05
4.09849e-05
4.09835e-05
4.0981e-05
4.10007e-05
4.10277e-05
4.10506e-05
4.10663e-05
4.10781e-05
4.10873e-05
4.10944e-05
4.10968e-05
4.10974e-05
4.10998e-05
4.10995e-05
4.10935e-05
4.10848e-05
4.10763e-05
4.10698e-05
4.10659e-05
4.10645e-05
4.09818e-05
4.09792e-05
4.09758e-05
4.09951e-05
4.10219e-05
4.10443e-05
4.10593e-05
4.107e-05
4.10777e-05
4.10842e-05
4.10872e-05
4.10891e-05
4.10919e-05
4.1092e-05
4.10873e-05
4.10806e-05
4.10736e-05
4.1068e-05
4.10642e-05
4.10623e-05
4.09778e-05
4.09743e-05
4.09703e-05
4.09893e-05
4.10158e-05
4.10379e-05
4.10523e-05
4.10622e-05
4.10692e-05
4.10754e-05
4.1079e-05
4.10815e-05
4.10839e-05
4.1084e-05
4.10805e-05
4.10753e-05
4.10697e-05
4.10649e-05
4.10612e-05
4.10591e-05
4.09734e-05
4.09691e-05
4.09645e-05
4.09834e-05
4.10097e-05
4.10314e-05
4.10453e-05
4.10545e-05
4.10608e-05
4.10665e-05
4.10703e-05
4.10735e-05
4.10763e-05
4.10769e-05
4.10744e-05
4.10704e-05
4.10658e-05
4.10616e-05
4.10579e-05
4.10554e-05
4.09686e-05
4.09637e-05
4.09587e-05
4.09774e-05
4.10035e-05
4.1025e-05
4.10384e-05
4.10471e-05
4.10528e-05
4.10583e-05
4.10624e-05
4.10658e-05
4.10687e-05
4.10696e-05
4.1068e-05
4.10651e-05
4.10613e-05
4.10576e-05
4.10539e-05
4.10511e-05
4.09637e-05
4.09583e-05
4.0953e-05
4.09716e-05
4.09976e-05
4.10188e-05
4.10317e-05
4.10399e-05
4.10451e-05
4.10503e-05
4.10545e-05
4.10583e-05
4.10615e-05
4.10629e-05
4.10621e-05
4.10601e-05
4.10569e-05
4.10535e-05
4.10498e-05
4.10468e-05
4.09586e-05
4.09529e-05
4.09473e-05
4.09659e-05
4.09917e-05
4.10127e-05
4.10252e-05
4.1033e-05
4.10378e-05
4.10428e-05
4.1047e-05
4.10511e-05
4.10545e-05
4.10563e-05
4.10563e-05
4.1055e-05
4.10523e-05
4.10493e-05
4.10456e-05
4.10422e-05
4.09536e-05
4.09476e-05
4.09419e-05
4.09604e-05
4.09861e-05
4.10069e-05
4.1019e-05
4.10263e-05
4.10308e-05
4.10357e-05
4.104e-05
4.10443e-05
4.1048e-05
4.10503e-05
4.10509e-05
4.10503e-05
4.10481e-05
4.10453e-05
4.10415e-05
4.10378e-05
4.09488e-05
4.09424e-05
4.09366e-05
4.09551e-05
4.09807e-05
4.10013e-05
4.10131e-05
4.102e-05
4.10242e-05
4.1029e-05
4.10333e-05
4.10379e-05
4.10418e-05
4.10445e-05
4.10458e-05
4.10458e-05
4.1044e-05
4.10415e-05
4.10374e-05
4.10334e-05
4.09439e-05
4.09374e-05
4.09316e-05
4.09501e-05
4.09755e-05
4.0996e-05
4.10073e-05
4.1014e-05
4.10178e-05
4.10226e-05
4.1027e-05
4.10319e-05
4.10361e-05
4.10392e-05
4.10411e-05
4.10416e-05
4.10402e-05
4.10379e-05
4.10336e-05
4.10291e-05
4.09395e-05
4.09328e-05
4.09271e-05
4.09456e-05
4.09709e-05
4.09912e-05
4.10021e-05
4.10084e-05
4.10119e-05
4.10167e-05
4.10214e-05
4.10265e-05
4.1031e-05
4.10345e-05
4.1037e-05
4.10381e-05
4.10371e-05
4.10349e-05
4.10302e-05
4.10252e-05
4.09348e-05
4.0928e-05
4.09225e-05
4.09411e-05
4.09662e-05
4.09863e-05
4.09969e-05
4.10027e-05
4.1006e-05
4.10109e-05
4.10157e-05
4.10212e-05
4.1026e-05
4.10299e-05
4.1033e-05
4.10346e-05
4.10338e-05
4.10317e-05
4.10266e-05
4.10211e-05
4.0931e-05
4.09241e-05
4.0919e-05
4.09376e-05
4.09625e-05
4.09825e-05
4.09926e-05
4.09981e-05
4.10011e-05
4.10061e-05
4.10112e-05
4.10171e-05
4.10222e-05
4.10265e-05
4.10303e-05
4.10324e-05
4.1032e-05
4.10299e-05
4.10242e-05
4.1018e-05
4.09263e-05
4.09194e-05
4.09146e-05
4.09333e-05
4.09581e-05
4.0978e-05
4.09876e-05
4.09927e-05
4.09955e-05
4.10007e-05
4.10061e-05
4.10124e-05
4.10178e-05
4.10224e-05
4.10268e-05
4.10295e-05
4.10293e-05
4.10273e-05
4.10209e-05
4.1014e-05
4.09234e-05
4.09166e-05
4.09124e-05
4.09311e-05
4.09557e-05
4.09755e-05
4.09846e-05
4.09892e-05
4.09917e-05
4.09972e-05
4.1003e-05
4.10098e-05
4.10156e-05
4.10206e-05
4.10258e-05
4.1029e-05
4.10291e-05
4.1027e-05
4.10199e-05
4.10119e-05
4.09186e-05
4.09119e-05
4.09083e-05
4.09271e-05
4.09515e-05
4.09712e-05
4.09799e-05
4.09841e-05
4.09864e-05
4.09923e-05
4.09985e-05
4.10058e-05
4.10119e-05
4.10172e-05
4.10231e-05
4.1027e-05
4.10272e-05
4.10251e-05
4.1017e-05
4.10079e-05
4.09169e-05
4.09104e-05
4.09076e-05
4.09264e-05
4.09505e-05
4.09702e-05
4.09782e-05
4.09819e-05
4.09838e-05
4.09902e-05
4.09968e-05
4.10048e-05
4.10113e-05
4.10171e-05
4.10241e-05
4.10287e-05
4.10293e-05
4.1027e-05
4.10177e-05
4.10072e-05
4.09114e-05
4.09052e-05
4.09033e-05
4.09222e-05
4.09461e-05
4.09657e-05
4.09731e-05
4.09763e-05
4.0978e-05
4.09849e-05
4.09921e-05
4.10007e-05
4.10075e-05
4.10138e-05
4.10218e-05
4.10272e-05
4.10281e-05
4.10256e-05
4.10149e-05
4.10029e-05
4.09113e-05
4.09054e-05
4.09046e-05
4.09235e-05
4.0947e-05
4.09665e-05
4.09731e-05
4.09756e-05
4.09769e-05
4.09844e-05
4.09923e-05
4.10015e-05
4.10086e-05
4.10154e-05
4.10248e-05
4.10314e-05
4.10329e-05
4.103e-05
4.10176e-05
4.10039e-05
4.09058e-05
4.09005e-05
4.09009e-05
4.09197e-05
4.09428e-05
4.09621e-05
4.09681e-05
4.097e-05
4.09712e-05
4.09795e-05
4.09881e-05
4.09981e-05
4.10052e-05
4.10122e-05
4.10231e-05
4.10307e-05
4.10329e-05
4.10297e-05
4.10154e-05
4.09997e-05
4.09002e-05
4.08968e-05
4.08876e-05
4.09081e-05
4.09414e-05
4.09537e-05
4.09604e-05
4.09737e-05
4.09674e-05
4.09824e-05
4.09802e-05
4.09963e-05
4.09922e-05
4.10039e-05
4.10109e-05
4.10081e-05
4.10226e-05
4.10163e-05
4.10078e-05
4.10034e-05
1.56467e-05
1.40255e-05
1.38277e-05
1.51251e-05
1.76619e-05
2.09516e-05
2.43911e-05
2.75481e-05
3.01992e-05
3.22473e-05
3.36398e-05
3.43361e-05
3.43297e-05
3.36795e-05
3.24829e-05
3.07812e-05
2.85663e-05
2.58214e-05
2.26177e-05
1.92403e-05
1.7753e-05
2.16608e-05
2.64406e-05
3.10989e-05
3.49425e-05
3.7737e-05
3.96386e-05
4.08667e-05
4.16365e-05
4.21485e-05
4.23324e-05
4.17029e-05
3.97774e-05
3.65512e-05
3.24251e-05
2.78653e-05
2.32767e-05
1.93032e-05
1.67446e-05
1.62598e-05
3.01173e-05
3.45475e-05
3.7883e-05
4.01687e-05
4.16371e-05
4.24843e-05
4.29252e-05
4.31863e-05
4.45326e-05
4.88784e-05
5.5186e-05
5.90058e-05
5.67378e-05
4.87044e-05
3.83121e-05
2.90197e-05
2.26822e-05
2.03406e-05
2.17692e-05
2.56594e-05
3.72147e-05
3.96268e-05
4.10954e-05
4.19078e-05
4.23307e-05
4.25513e-05
4.2709e-05
4.31098e-05
5.15074e-05
7.52299e-05
0.000104698
0.000122056
0.000117562
9.5169e-05
6.85234e-05
4.67752e-05
3.42198e-05
3.01495e-05
3.1283e-05
3.4364e-05
4.10913e-05
4.16757e-05
4.20152e-05
4.22201e-05
4.23623e-05
4.24696e-05
4.25902e-05
4.35211e-05
6.94486e-05
0.000128849
0.000188152
0.000218735
0.000212481
0.000178406
0.000130551
8.7567e-05
5.98923e-05
4.65169e-05
4.18311e-05
4.09807e-05
4.21765e-05
4.20884e-05
4.21007e-05
4.21503e-05
4.22151e-05
4.22888e-05
4.24e-05
4.3734e-05
8.62498e-05
0.000164341
0.000224365
0.000255616
0.000246196
0.000204038
0.000151151
0.000103765
7.13304e-05
5.38025e-05
4.6066e-05
4.32208e-05
4.30482e-05
4.2294e-05
4.20959e-05
4.20904e-05
4.21439e-05
4.22128e-05
4.23175e-05
4.39228e-05
9.29792e-05
0.000160755
0.000203531
0.000277224
0.000376164
0.000388281
0.000305758
0.000199816
0.000120028
7.50431e-05
5.42931e-05
4.60938e-05
4.25066e-05
4.21008e-05
4.2017e-05
4.20339e-05
4.20803e-05
4.21369e-05
4.22139e-05
4.25726e-05
5.95602e-05
7.54847e-05
8.09177e-05
0.000144222
0.00026692
0.000318676
0.000264568
0.000173679
0.000103891
6.62768e-05
5.02073e-05
4.44379e-05
4.20329e-05
4.19652e-05
4.19717e-05
4.20098e-05
4.20577e-05
4.21103e-05
4.21715e-05
4.22668e-05
4.26362e-05
3.78705e-05
3.10578e-05
4.79943e-05
0.000106659
0.000148432
0.000132649
9.41018e-05
6.48237e-05
5.01434e-05
4.44421e-05
4.26152e-05
4.19166e-05
4.19427e-05
4.19649e-05
4.19993e-05
4.20391e-05
4.20837e-05
4.21331e-05
4.22151e-05
4.21744e-05
3.63481e-05
2.9181e-05
2.75676e-05
4.2626e-05
5.90005e-05
5.91411e-05
5.17045e-05
4.58896e-05
4.319e-05
4.22678e-05
4.20291e-05
4.19117e-05
4.19453e-05
4.19662e-05
4.19983e-05
4.20348e-05
4.20742e-05
4.21142e-05
4.21843e-05
4.21122e-05
3.57883e-05
2.90594e-05
2.4269e-05
2.67718e-05
3.38595e-05
3.8588e-05
4.05836e-05
4.13708e-05
4.17153e-05
4.18724e-05
4.19459e-05
4.19268e-05
4.19536e-05
4.19693e-05
4.19971e-05
4.20297e-05
4.20641e-05
4.20988e-05
4.21585e-05
4.20918e-05
3.53993e-05
2.91134e-05
2.43806e-05
2.49531e-05
3.02092e-05
3.56287e-05
3.91269e-05
4.08722e-05
4.15994e-05
4.1866e-05
4.19602e-05
4.19389e-05
4.19601e-05
4.19725e-05
4.19982e-05
4.20288e-05
4.20595e-05
4.20898e-05
4.2138e-05
4.20602e-05
3.53964e-05
2.88901e-05
2.36074e-05
2.43662e-05
2.98649e-05
3.54958e-05
3.91276e-05
4.09133e-05
4.16369e-05
4.18919e-05
4.19773e-05
4.19484e-05
4.19648e-05
4.19739e-05
4.19975e-05
4.20262e-05
4.20538e-05
4.20805e-05
4.21193e-05
4.20652e-05
3.53958e-05
2.97947e-05
2.51029e-05
2.56724e-05
3.06562e-05
3.58871e-05
3.9307e-05
4.09959e-05
4.16773e-05
4.1914e-05
4.19911e-05
4.19556e-05
4.1968e-05
4.19746e-05
4.19968e-05
4.20244e-05
4.205e-05
4.20743e-05
4.21054e-05
4.205e-05
3.45994e-05
2.75012e-05
2.32665e-05
2.53196e-05
3.09883e-05
3.62527e-05
3.953e-05
4.11039e-05
4.17254e-05
4.19365e-05
4.2003e-05
4.19608e-05
4.19693e-05
4.19737e-05
4.19945e-05
4.2021e-05
4.20445e-05
4.20636e-05
4.20832e-05
4.19802e-05
3.46294e-05
2.48635e-05
2.16087e-05
2.54158e-05
3.1869e-05
3.70967e-05
4.00349e-05
4.13338e-05
4.18137e-05
4.19682e-05
4.20151e-05
4.19658e-05
4.19697e-05
4.19719e-05
4.19917e-05
4.20176e-05
4.20403e-05
4.20581e-05
4.20749e-05
4.20839e-05
4.11657e-05
4.02295e-05
4.0069e-05
4.05197e-05
4.10971e-05
4.15161e-05
4.17976e-05
4.19444e-05
4.20038e-05
4.20238e-05
4.20315e-05
4.19664e-05
4.19681e-05
4.19687e-05
4.19878e-05
4.20129e-05
4.20346e-05
4.20506e-05
4.20645e-05
4.20775e-05
4.20542e-05
4.20226e-05
4.20148e-05
4.2032e-05
4.20485e-05
4.20497e-05
4.20468e-05
4.2042e-05
4.20374e-05
4.20348e-05
4.20349e-05
4.19653e-05
4.19654e-05
4.19648e-05
4.19833e-05
4.2008e-05
4.20291e-05
4.20441e-05
4.2056e-05
4.20654e-05
4.20716e-05
4.20707e-05
4.20696e-05
4.20732e-05
4.20739e-05
4.20669e-05
4.20569e-05
4.20472e-05
4.20401e-05
4.20361e-05
4.20351e-05
4.1963e-05
4.19618e-05
4.19603e-05
4.19783e-05
4.20026e-05
4.20231e-05
4.20372e-05
4.2048e-05
4.20564e-05
4.20628e-05
4.20647e-05
4.2065e-05
4.2067e-05
4.20664e-05
4.20605e-05
4.20524e-05
4.20444e-05
4.20385e-05
4.20349e-05
4.20336e-05
4.19599e-05
4.19577e-05
4.19554e-05
4.1973e-05
4.1997e-05
4.20171e-05
4.20305e-05
4.20402e-05
4.20472e-05
4.2053e-05
4.20556e-05
4.20572e-05
4.20595e-05
4.20592e-05
4.20547e-05
4.20483e-05
4.20418e-05
4.20366e-05
4.20331e-05
4.20314e-05
4.19561e-05
4.19531e-05
4.19501e-05
4.19675e-05
4.19913e-05
4.2011e-05
4.20238e-05
4.20328e-05
4.20392e-05
4.20448e-05
4.20479e-05
4.205e-05
4.2052e-05
4.20517e-05
4.20482e-05
4.20433e-05
4.2038e-05
4.20336e-05
4.20302e-05
4.20282e-05
4.19519e-05
4.19482e-05
4.19448e-05
4.1962e-05
4.19855e-05
4.20049e-05
4.20173e-05
4.20256e-05
4.20313e-05
4.20364e-05
4.20398e-05
4.20425e-05
4.20449e-05
4.20451e-05
4.20425e-05
4.20387e-05
4.20343e-05
4.20304e-05
4.2027e-05
4.20247e-05
4.19475e-05
4.19433e-05
4.19395e-05
4.19565e-05
4.19799e-05
4.1999e-05
4.20109e-05
4.20187e-05
4.20239e-05
4.20289e-05
4.20324e-05
4.20354e-05
4.20378e-05
4.20383e-05
4.20366e-05
4.20337e-05
4.20301e-05
4.20266e-05
4.20233e-05
4.20207e-05
4.19429e-05
4.19383e-05
4.19342e-05
4.19512e-05
4.19744e-05
4.19932e-05
4.20047e-05
4.2012e-05
4.20168e-05
4.20215e-05
4.20251e-05
4.20284e-05
4.20311e-05
4.20321e-05
4.20311e-05
4.2029e-05
4.2026e-05
4.20229e-05
4.20195e-05
4.20167e-05
4.19383e-05
4.19333e-05
4.1929e-05
4.19459e-05
4.1969e-05
4.19876e-05
4.19987e-05
4.20057e-05
4.20101e-05
4.20146e-05
4.20183e-05
4.20218e-05
4.20247e-05
4.2026e-05
4.20257e-05
4.20243e-05
4.20218e-05
4.2019e-05
4.20156e-05
4.20126e-05
4.19338e-05
4.19285e-05
4.19241e-05
4.19409e-05
4.19638e-05
4.19823e-05
4.1993e-05
4.19996e-05
4.20037e-05
4.20081e-05
4.20118e-05
4.20156e-05
4.20187e-05
4.20205e-05
4.20208e-05
4.202e-05
4.20179e-05
4.20153e-05
4.20118e-05
4.20085e-05
4.19294e-05
4.19239e-05
4.19194e-05
4.19362e-05
4.19589e-05
4.19772e-05
4.19876e-05
4.19939e-05
4.19976e-05
4.2002e-05
4.20058e-05
4.20098e-05
4.20131e-05
4.20152e-05
4.20162e-05
4.20159e-05
4.20141e-05
4.20118e-05
4.20081e-05
4.20045e-05
4.19251e-05
4.19194e-05
4.19149e-05
4.19316e-05
4.19543e-05
4.19724e-05
4.19824e-05
4.19884e-05
4.19919e-05
4.19961e-05
4.20001e-05
4.20043e-05
4.20079e-05
4.20104e-05
4.20119e-05
4.20121e-05
4.20106e-05
4.20084e-05
4.20046e-05
4.20007e-05
4.19211e-05
4.19153e-05
4.19108e-05
4.19276e-05
4.19501e-05
4.19681e-05
4.19777e-05
4.19833e-05
4.19865e-05
4.19909e-05
4.1995e-05
4.19995e-05
4.20033e-05
4.20062e-05
4.20082e-05
4.20089e-05
4.20078e-05
4.20057e-05
4.20015e-05
4.19972e-05
4.19169e-05
4.1911e-05
4.19067e-05
4.19236e-05
4.19459e-05
4.19637e-05
4.1973e-05
4.19783e-05
4.19813e-05
4.19856e-05
4.19899e-05
4.19946e-05
4.19987e-05
4.2002e-05
4.20045e-05
4.20056e-05
4.20048e-05
4.20028e-05
4.19983e-05
4.19935e-05
4.19136e-05
4.19076e-05
4.19036e-05
4.19205e-05
4.19426e-05
4.19603e-05
4.19692e-05
4.19741e-05
4.19769e-05
4.19814e-05
4.19858e-05
4.1991e-05
4.19954e-05
4.19989e-05
4.2002e-05
4.20037e-05
4.20031e-05
4.20012e-05
4.19961e-05
4.19907e-05
4.19094e-05
4.19034e-05
4.18997e-05
4.19167e-05
4.19387e-05
4.19563e-05
4.19648e-05
4.19694e-05
4.19719e-05
4.19766e-05
4.19813e-05
4.19868e-05
4.19914e-05
4.19953e-05
4.1999e-05
4.20011e-05
4.20007e-05
4.19988e-05
4.19932e-05
4.19871e-05
4.19069e-05
4.1901e-05
4.18978e-05
4.19147e-05
4.19366e-05
4.1954e-05
4.19621e-05
4.19663e-05
4.19685e-05
4.19735e-05
4.19785e-05
4.19845e-05
4.19894e-05
4.19936e-05
4.1998e-05
4.20006e-05
4.20005e-05
4.19986e-05
4.19922e-05
4.19853e-05
4.19026e-05
4.18968e-05
4.18941e-05
4.19112e-05
4.19328e-05
4.19502e-05
4.19579e-05
4.19617e-05
4.19638e-05
4.19691e-05
4.19745e-05
4.19809e-05
4.19861e-05
4.19906e-05
4.19956e-05
4.19988e-05
4.19988e-05
4.19968e-05
4.19896e-05
4.19817e-05
4.19012e-05
4.18956e-05
4.18936e-05
4.19106e-05
4.1932e-05
4.19494e-05
4.19565e-05
4.19598e-05
4.19616e-05
4.19673e-05
4.19731e-05
4.19801e-05
4.19856e-05
4.19906e-05
4.19965e-05
4.20003e-05
4.20006e-05
4.19985e-05
4.19903e-05
4.19812e-05
4.18964e-05
4.1891e-05
4.18898e-05
4.19068e-05
4.19281e-05
4.19453e-05
4.1952e-05
4.19549e-05
4.19565e-05
4.19626e-05
4.1969e-05
4.19765e-05
4.19823e-05
4.19876e-05
4.19944e-05
4.19989e-05
4.19995e-05
4.19972e-05
4.19877e-05
4.19774e-05
4.18963e-05
4.18913e-05
4.1891e-05
4.19081e-05
4.1929e-05
4.19461e-05
4.1952e-05
4.19543e-05
4.19557e-05
4.19623e-05
4.19692e-05
4.19772e-05
4.19833e-05
4.19891e-05
4.19972e-05
4.20027e-05
4.20038e-05
4.20011e-05
4.19902e-05
4.19783e-05
4.18915e-05
4.1887e-05
4.18878e-05
4.19048e-05
4.19253e-05
4.19424e-05
4.19476e-05
4.19495e-05
4.19507e-05
4.19581e-05
4.19656e-05
4.19743e-05
4.19804e-05
4.19864e-05
4.19957e-05
4.20022e-05
4.20038e-05
4.20009e-05
4.19883e-05
4.19747e-05
4.1892e-05
4.18897e-05
4.1882e-05
4.19003e-05
4.193e-05
4.19404e-05
4.19462e-05
4.19586e-05
4.19527e-05
4.19668e-05
4.19645e-05
4.19794e-05
4.19752e-05
4.19862e-05
4.19926e-05
4.19892e-05
4.20019e-05
4.19954e-05
4.19874e-05
4.19837e-05
1.62586e-05
1.47738e-05
1.48716e-05
1.65376e-05
1.94291e-05
2.29874e-05
2.65867e-05
2.98233e-05
3.24996e-05
3.4533e-05
3.58753e-05
3.64869e-05
3.63652e-05
3.55783e-05
3.42284e-05
3.23479e-05
2.99175e-05
2.69185e-05
2.34532e-05
1.98801e-05
1.91644e-05
2.34773e-05
2.84968e-05
3.32172e-05
3.6999e-05
3.96937e-05
4.15013e-05
4.26511e-05
4.336e-05
4.38376e-05
4.39957e-05
4.32847e-05
4.11762e-05
3.76848e-05
3.32656e-05
2.8436e-05
2.36595e-05
1.96599e-05
1.72878e-05
1.71825e-05
3.19121e-05
3.63125e-05
3.95597e-05
4.17439e-05
4.31173e-05
4.38837e-05
4.42785e-05
4.45222e-05
4.60394e-05
5.10099e-05
5.81862e-05
6.2464e-05
5.98659e-05
5.09607e-05
3.97354e-05
2.99278e-05
2.34853e-05
2.13715e-05
2.31564e-05
2.73254e-05
3.87862e-05
4.10763e-05
4.24399e-05
4.31729e-05
4.35431e-05
4.37379e-05
4.38882e-05
4.4327e-05
5.38769e-05
8.08944e-05
0.000114181
0.000133308
0.000127535
0.000102072
7.2713e-05
4.92498e-05
3.59942e-05
3.17979e-05
3.29525e-05
3.60085e-05
4.24392e-05
4.29e-05
4.3173e-05
4.33416e-05
4.34647e-05
4.35651e-05
4.36885e-05
4.47361e-05
7.42038e-05
0.000141877
0.000209039
0.000243082
0.000235176
0.000196083
0.000141989
9.42305e-05
6.37994e-05
4.90635e-05
4.37168e-05
4.25173e-05
4.33564e-05
4.31918e-05
4.31732e-05
4.32078e-05
4.32669e-05
4.33402e-05
4.34572e-05
4.49686e-05
9.33278e-05
0.000182564
0.000251099
0.000286481
0.000274576
0.000226401
0.000166135
0.000112495
7.60964e-05
5.65062e-05
4.7818e-05
4.4562e-05
4.41495e-05
4.33435e-05
4.3131e-05
4.31184e-05
4.31695e-05
4.32384e-05
4.33484e-05
4.51788e-05
0.000101146
0.000179044
0.000229114
0.000315787
0.000425701
0.000431887
0.00033465
0.00021534
0.000127356
7.84244e-05
5.60932e-05
4.73499e-05
4.35455e-05
4.31194e-05
4.30302e-05
4.30434e-05
4.30886e-05
4.31456e-05
4.32257e-05
4.36267e-05
6.31059e-05
8.20458e-05
8.96949e-05
0.000165806
0.000303858
0.000355364
0.000288962
0.000186061
0.000109295
6.86885e-05
5.15967e-05
4.55373e-05
4.30459e-05
4.297e-05
4.29737e-05
4.30089e-05
4.30551e-05
4.31077e-05
4.31706e-05
4.32711e-05
4.37099e-05
3.87518e-05
3.18984e-05
5.32517e-05
0.000120625
0.000164309
0.000143324
9.94653e-05
6.73348e-05
5.15708e-05
4.55461e-05
4.3638e-05
4.29177e-05
4.29384e-05
4.29586e-05
4.29905e-05
4.30288e-05
4.3073e-05
4.31235e-05
4.32092e-05
4.31845e-05
3.70658e-05
2.97963e-05
2.8995e-05
4.6557e-05
6.37761e-05
6.25758e-05
5.37618e-05
4.72468e-05
4.42923e-05
4.3292e-05
4.30299e-05
4.29055e-05
4.29351e-05
4.29546e-05
4.29845e-05
4.30191e-05
4.30577e-05
4.30979e-05
4.31704e-05
4.31113e-05
3.64745e-05
2.97268e-05
2.50762e-05
2.81555e-05
3.55633e-05
4.01104e-05
4.18498e-05
4.24802e-05
4.2751e-05
4.28768e-05
4.29371e-05
4.29151e-05
4.29391e-05
4.29539e-05
4.29797e-05
4.30103e-05
4.30435e-05
4.30779e-05
4.31388e-05
4.30833e-05
3.60501e-05
2.97663e-05
2.50655e-05
2.58635e-05
3.13485e-05
3.68128e-05
4.02535e-05
4.19319e-05
4.26157e-05
4.28603e-05
4.29446e-05
4.29236e-05
4.29427e-05
4.29544e-05
4.29782e-05
4.30067e-05
4.30358e-05
4.30653e-05
4.31135e-05
4.30459e-05
3.60407e-05
2.94831e-05
2.41836e-05
2.51649e-05
3.0905e-05
3.66187e-05
4.02224e-05
4.19563e-05
4.26435e-05
4.288e-05
4.29573e-05
4.29304e-05
4.29453e-05
4.29541e-05
4.29758e-05
4.30023e-05
4.30281e-05
4.30537e-05
4.30918e-05
4.30485e-05
3.60441e-05
3.04414e-05
2.57081e-05
2.64581e-05
3.16687e-05
3.6987e-05
4.03868e-05
4.20295e-05
4.26778e-05
4.28979e-05
4.29678e-05
4.29357e-05
4.2947e-05
4.29536e-05
4.29739e-05
4.29992e-05
4.30228e-05
4.30456e-05
4.30756e-05
4.30303e-05
3.52086e-05
2.80401e-05
2.38399e-05
2.6132e-05
3.20188e-05
3.73533e-05
4.06033e-05
4.21308e-05
4.2721e-05
4.2917e-05
4.29773e-05
4.29396e-05
4.29473e-05
4.29518e-05
4.29709e-05
4.2995e-05
4.30164e-05
4.3034e-05
4.30525e-05
4.29569e-05
3.52219e-05
2.52009e-05
2.21471e-05
2.63163e-05
3.2986e-05
3.82339e-05
4.11116e-05
4.2355e-05
4.28041e-05
4.29455e-05
4.29874e-05
4.29433e-05
4.2947e-05
4.29495e-05
4.29677e-05
4.2991e-05
4.30116e-05
4.30279e-05
4.30435e-05
4.30515e-05
4.21183e-05
4.12379e-05
4.11428e-05
4.16061e-05
4.21512e-05
4.25355e-05
4.27927e-05
4.29251e-05
4.29776e-05
4.29947e-05
4.30012e-05
4.29433e-05
4.2945e-05
4.29461e-05
4.29636e-05
4.29862e-05
4.30057e-05
4.30203e-05
4.30331e-05
4.30451e-05
4.30219e-05
4.29934e-05
4.29881e-05
4.30047e-05
4.30186e-05
4.30187e-05
4.30154e-05
4.30106e-05
4.30062e-05
4.30036e-05
4.30036e-05
4.29419e-05
4.29421e-05
4.29422e-05
4.29591e-05
4.29813e-05
4.30002e-05
4.30137e-05
4.30246e-05
4.30331e-05
4.30387e-05
4.30375e-05
4.30366e-05
4.30399e-05
4.30398e-05
4.30331e-05
4.30237e-05
4.30146e-05
4.30081e-05
4.30043e-05
4.30034e-05
4.29394e-05
4.29385e-05
4.29378e-05
4.29542e-05
4.29759e-05
4.29943e-05
4.3007e-05
4.30168e-05
4.30244e-05
4.30302e-05
4.30316e-05
4.30317e-05
4.30334e-05
4.30324e-05
4.30267e-05
4.30191e-05
4.30117e-05
4.30062e-05
4.30029e-05
4.30017e-05
4.29364e-05
4.29346e-05
4.29331e-05
4.29492e-05
4.29706e-05
4.29884e-05
4.30005e-05
4.30093e-05
4.30156e-05
4.30209e-05
4.3023e-05
4.30243e-05
4.30263e-05
4.30256e-05
4.30212e-05
4.30151e-05
4.3009e-05
4.30043e-05
4.3001e-05
4.29994e-05
4.29327e-05
4.29302e-05
4.29281e-05
4.2944e-05
4.29651e-05
4.29826e-05
4.29941e-05
4.30023e-05
4.3008e-05
4.30131e-05
4.30157e-05
4.30175e-05
4.30191e-05
4.30184e-05
4.3015e-05
4.30103e-05
4.30054e-05
4.30013e-05
4.29981e-05
4.29963e-05
4.29288e-05
4.29257e-05
4.29232e-05
4.29388e-05
4.29597e-05
4.29769e-05
4.29879e-05
4.29954e-05
4.30006e-05
4.30052e-05
4.30082e-05
4.30105e-05
4.30124e-05
4.30123e-05
4.30097e-05
4.3006e-05
4.30018e-05
4.29982e-05
4.29951e-05
4.2993e-05
4.29246e-05
4.2921e-05
4.29182e-05
4.29337e-05
4.29544e-05
4.29713e-05
4.29819e-05
4.2989e-05
4.29937e-05
4.29982e-05
4.30013e-05
4.30038e-05
4.30057e-05
4.30059e-05
4.30041e-05
4.30013e-05
4.29979e-05
4.29946e-05
4.29915e-05
4.29892e-05
4.29205e-05
4.29165e-05
4.29134e-05
4.29288e-05
4.29493e-05
4.2966e-05
4.29762e-05
4.29828e-05
4.29871e-05
4.29913e-05
4.29945e-05
4.29974e-05
4.29996e-05
4.30002e-05
4.29991e-05
4.29969e-05
4.2994e-05
4.29911e-05
4.2988e-05
4.29855e-05
4.29162e-05
4.29119e-05
4.29087e-05
4.29239e-05
4.29444e-05
4.29608e-05
4.29706e-05
4.29769e-05
4.29809e-05
4.2985e-05
4.29882e-05
4.29912e-05
4.29936e-05
4.29946e-05
4.29941e-05
4.29926e-05
4.29901e-05
4.29875e-05
4.29844e-05
4.29817e-05
4.29121e-05
4.29076e-05
4.29042e-05
4.29194e-05
4.29397e-05
4.29559e-05
4.29654e-05
4.29713e-05
4.2975e-05
4.2979e-05
4.29823e-05
4.29856e-05
4.29881e-05
4.29895e-05
4.29895e-05
4.29886e-05
4.29865e-05
4.2984e-05
4.29808e-05
4.29779e-05
4.29081e-05
4.29034e-05
4.28999e-05
4.29151e-05
4.29352e-05
4.29513e-05
4.29604e-05
4.29661e-05
4.29695e-05
4.29734e-05
4.29768e-05
4.29802e-05
4.2983e-05
4.29846e-05
4.29852e-05
4.29848e-05
4.2983e-05
4.29808e-05
4.29775e-05
4.29743e-05
4.29042e-05
4.28993e-05
4.28958e-05
4.2911e-05
4.2931e-05
4.29469e-05
4.29557e-05
4.29611e-05
4.29642e-05
4.29681e-05
4.29716e-05
4.29752e-05
4.29782e-05
4.29802e-05
4.29813e-05
4.29813e-05
4.29798e-05
4.29777e-05
4.29743e-05
4.29708e-05
4.29007e-05
4.28956e-05
4.28922e-05
4.29073e-05
4.29272e-05
4.2943e-05
4.29515e-05
4.29565e-05
4.29594e-05
4.29633e-05
4.29669e-05
4.29708e-05
4.29741e-05
4.29764e-05
4.29779e-05
4.29783e-05
4.29772e-05
4.29752e-05
4.29715e-05
4.29677e-05
4.28969e-05
4.28918e-05
4.28885e-05
4.29037e-05
4.29234e-05
4.2939e-05
4.29472e-05
4.2952e-05
4.29547e-05
4.29586e-05
4.29623e-05
4.29665e-05
4.29699e-05
4.29726e-05
4.29746e-05
4.29754e-05
4.29745e-05
4.29726e-05
4.29685e-05
4.29643e-05
4.2894e-05
4.28888e-05
4.28858e-05
4.29009e-05
4.29205e-05
4.2936e-05
4.29438e-05
4.29483e-05
4.29508e-05
4.29548e-05
4.29587e-05
4.29632e-05
4.29669e-05
4.29699e-05
4.29724e-05
4.29736e-05
4.29729e-05
4.29711e-05
4.29666e-05
4.29619e-05
4.28902e-05
4.28851e-05
4.28823e-05
4.28975e-05
4.2917e-05
4.29324e-05
4.29399e-05
4.2944e-05
4.29463e-05
4.29506e-05
4.29546e-05
4.29594e-05
4.29633e-05
4.29666e-05
4.29696e-05
4.29712e-05
4.29707e-05
4.29689e-05
4.29639e-05
4.29587e-05
4.28881e-05
4.2883e-05
4.28806e-05
4.28959e-05
4.29151e-05
4.29304e-05
4.29375e-05
4.29413e-05
4.29434e-05
4.29478e-05
4.29522e-05
4.29574e-05
4.29616e-05
4.29651e-05
4.29687e-05
4.29708e-05
4.29705e-05
4.29687e-05
4.29631e-05
4.29571e-05
4.28843e-05
4.28793e-05
4.28774e-05
4.28927e-05
4.29118e-05
4.29271e-05
4.29338e-05
4.29373e-05
4.29392e-05
4.29439e-05
4.29486e-05
4.29542e-05
4.29586e-05
4.29624e-05
4.29666e-05
4.29691e-05
4.29689e-05
4.2967e-05
4.29607e-05
4.29539e-05
4.28831e-05
4.28783e-05
4.28769e-05
4.28922e-05
4.29111e-05
4.29263e-05
4.29326e-05
4.29357e-05
4.29373e-05
4.29424e-05
4.29474e-05
4.29535e-05
4.29582e-05
4.29624e-05
4.29674e-05
4.29705e-05
4.29705e-05
4.29685e-05
4.29613e-05
4.29535e-05
4.28789e-05
4.28743e-05
4.28736e-05
4.28889e-05
4.29076e-05
4.29228e-05
4.29286e-05
4.29313e-05
4.29328e-05
4.29383e-05
4.29438e-05
4.29503e-05
4.29552e-05
4.29598e-05
4.29655e-05
4.29692e-05
4.29695e-05
4.29673e-05
4.29591e-05
4.29501e-05
4.28789e-05
4.28746e-05
4.28748e-05
4.289e-05
4.29085e-05
4.29235e-05
4.29287e-05
4.29309e-05
4.29321e-05
4.29381e-05
4.2944e-05
4.2951e-05
4.29562e-05
4.29611e-05
4.2968e-05
4.29725e-05
4.29732e-05
4.29708e-05
4.29612e-05
4.2951e-05
4.28748e-05
4.2871e-05
4.2872e-05
4.28872e-05
4.29053e-05
4.29202e-05
4.29249e-05
4.29267e-05
4.29279e-05
4.29345e-05
4.29409e-05
4.29485e-05
4.29537e-05
4.29588e-05
4.29667e-05
4.29721e-05
4.29733e-05
4.29706e-05
4.29596e-05
4.29478e-05
4.28803e-05
4.28787e-05
4.28723e-05
4.28886e-05
4.29148e-05
4.29238e-05
4.29287e-05
4.29401e-05
4.29347e-05
4.29478e-05
4.29454e-05
4.29592e-05
4.29549e-05
4.29652e-05
4.2971e-05
4.29671e-05
4.29783e-05
4.29717e-05
4.29642e-05
4.29611e-05
1.68482e-05
1.55546e-05
1.59941e-05
1.80523e-05
2.1298e-05
2.50992e-05
2.88352e-05
3.21314e-05
3.48156e-05
3.68183e-05
3.80949e-05
3.86067e-05
3.83567e-05
3.74232e-05
3.59116e-05
3.38424e-05
3.1184e-05
2.79198e-05
2.41935e-05
2.04482e-05
2.06629e-05
2.53628e-05
3.0582e-05
3.5326e-05
3.90213e-05
4.16103e-05
4.33202e-05
4.43898e-05
4.50355e-05
4.54766e-05
4.56054e-05
4.48035e-05
4.24962e-05
3.87229e-05
3.39997e-05
2.89026e-05
2.396e-05
1.99784e-05
1.78491e-05
1.8172e-05
3.37101e-05
3.80584e-05
4.12041e-05
4.32806e-05
4.45565e-05
4.52463e-05
4.55986e-05
4.58281e-05
4.75319e-05
5.31843e-05