/*--------------------------------*- C++ -*----------------------------------*\
| =========                 |                                                 |
| \\      /  F ield         | OpenFOAM: The Open Source CFD Toolbox           |
|  \\    /   O peration     | Version:  2.4.0                                 |
|   \\  /    A nd           | Web:      www.OpenFOAM.org                      |
|    \\/     M anipulation  |                                                 |
\*---------------------------------------------------------------------------*/
FoamFile
{
    version     2.0;
    format      ascii;
    class       volScalarField;
    location    "70";
    object      nut;
}
// * * * * * * * * * * * * * * * * * * * * * * * * * * * * * * * * * * * * * //

dimensions      [0 2 -1 0 0 0 0];

internalField   nonuniform List<scalar> 
283312
(
1.70813e-06
1.53465e-06
1.46675e-06
1.53132e-06
1.72819e-06
2.02217e-06
2.35799e-06
2.68376e-06
2.9665e-06
3.18777e-06
3.33777e-06
3.41253e-06
3.41404e-06
3.35075e-06
3.23426e-06
3.07117e-06
2.86464e-06
2.61589e-06
2.32962e-06
2.02346e-06
1.68875e-06
2.03312e-06
2.48834e-06
2.96508e-06
3.38882e-06
3.71969e-06
3.9555e-06
4.11008e-06
4.20081e-06
4.24127e-06
4.22992e-06
4.13813e-06
3.9299e-06
3.60224e-06
3.19258e-06
2.75357e-06
2.31953e-06
1.93701e-06
1.6689e-06
1.57785e-06
2.89609e-06
3.39505e-06
3.78996e-06
4.0717e-06
4.25815e-06
4.36958e-06
4.42789e-06
4.46e-06
4.58817e-06
4.9573e-06
5.50638e-06
5.8937e-06
5.77093e-06
5.07949e-06
4.07909e-06
3.11356e-06
2.37877e-06
2.02384e-06
2.07261e-06
2.42016e-06
3.79325e-06
4.0912e-06
4.27701e-06
4.38286e-06
4.43931e-06
4.46717e-06
4.48278e-06
4.52246e-06
5.42741e-06
7.70049e-06
1.05311e-05
1.24524e-05
1.24717e-05
1.06303e-05
8.00471e-06
5.51969e-06
3.84307e-06
3.14663e-06
3.14517e-06
3.45167e-06
4.34783e-06
4.40907e-06
4.4461e-06
4.46913e-06
4.48415e-06
4.49357e-06
4.50215e-06
4.60543e-06
7.71615e-06
1.37441e-05
1.95142e-05
2.28181e-05
2.28537e-05
2.00876e-05
1.55229e-05
1.07962e-05
7.28184e-06
5.34139e-06
4.56433e-06
4.3641e-06
4.52211e-06
4.49194e-06
4.48515e-06
4.48803e-06
4.49314e-06
4.49804e-06
4.50498e-06
4.66575e-06
1.04644e-05
1.86897e-05
2.40814e-05
2.70624e-05
2.68831e-05
2.35028e-05
1.87145e-05
1.35322e-05
9.19093e-06
6.4855e-06
5.20223e-06
4.70458e-06
4.68192e-06
4.54377e-06
4.50279e-06
4.49576e-06
4.49807e-06
4.50211e-06
4.50864e-06
4.70689e-06
1.18068e-05
1.8707e-05
2.15075e-05
2.82239e-05
4.16534e-05
4.965e-05
4.49858e-05
3.20242e-05
1.88655e-05
1.04903e-05
6.65435e-06
5.20154e-06
4.5958e-06
4.51854e-06
4.49879e-06
4.49741e-06
4.50027e-06
4.50366e-06
4.50782e-06
4.54652e-06
6.90994e-06
8.11439e-06
7.74878e-06
1.36008e-05
2.99807e-05
4.33496e-05
4.17151e-05
2.89811e-05
1.62116e-05
8.92705e-06
5.95045e-06
4.92759e-06
4.51656e-06
4.49975e-06
4.49665e-06
4.49923e-06
4.50285e-06
4.50626e-06
4.50956e-06
4.51467e-06
4.55005e-06
3.74465e-06
2.72167e-06
4.07352e-06
1.13134e-05
1.95397e-05
1.96202e-05
1.38158e-05
8.58077e-06
5.93899e-06
4.93634e-06
4.61479e-06
4.4971e-06
4.49815e-06
4.49889e-06
4.50175e-06
4.505e-06
4.50801e-06
4.51075e-06
4.51511e-06
4.49943e-06
3.5501e-06
2.48657e-06
2.18443e-06
3.90471e-06
6.57129e-06
7.11867e-06
6.10971e-06
5.17498e-06
4.71917e-06
4.55718e-06
4.51259e-06
4.49722e-06
4.50021e-06
4.50112e-06
4.50387e-06
4.50702e-06
4.5099e-06
4.5123e-06
4.51627e-06
4.49878e-06
3.45588e-06
2.41028e-06
1.86057e-06
2.17768e-06
3.16453e-06
3.93063e-06
4.27636e-06
4.40854e-06
4.46301e-06
4.48721e-06
4.49836e-06
4.50034e-06
4.50262e-06
4.5031e-06
4.50557e-06
4.50856e-06
4.51126e-06
4.51353e-06
4.51719e-06
4.50121e-06
3.38928e-06
2.3691e-06
1.84208e-06
1.97038e-06
2.68281e-06
3.48138e-06
4.03274e-06
4.31855e-06
4.4402e-06
4.48527e-06
4.501e-06
4.50278e-06
4.50436e-06
4.50452e-06
4.50688e-06
4.50985e-06
4.51247e-06
4.51468e-06
4.51793e-06
4.50179e-06
3.35613e-06
2.32351e-06
1.7709e-06
1.91955e-06
2.64768e-06
3.46393e-06
4.03189e-06
4.32442e-06
4.44619e-06
4.48974e-06
4.50421e-06
4.50468e-06
4.50571e-06
4.50558e-06
4.50781e-06
4.51073e-06
4.51326e-06
4.51538e-06
4.51823e-06
4.50452e-06
3.33577e-06
2.3665e-06
1.87583e-06
2.02629e-06
2.71914e-06
3.5024e-06
4.05185e-06
4.33513e-06
4.4522e-06
4.49341e-06
4.50673e-06
4.50615e-06
4.50668e-06
4.50631e-06
4.50848e-06
4.51141e-06
4.51391e-06
4.51602e-06
4.51856e-06
4.50582e-06
3.27622e-06
2.20349e-06
1.75713e-06
2.03595e-06
2.79203e-06
3.56989e-06
4.0922e-06
4.3545e-06
4.46073e-06
4.49738e-06
4.50893e-06
4.5074e-06
4.50739e-06
4.50679e-06
4.50887e-06
4.51177e-06
4.51418e-06
4.51597e-06
4.51766e-06
4.5046e-06
3.47232e-06
2.24488e-06
1.83219e-06
2.24314e-06
3.04628e-06
3.76619e-06
4.20079e-06
4.40188e-06
4.47846e-06
4.50368e-06
4.51142e-06
4.50855e-06
4.50791e-06
4.50706e-06
4.50909e-06
4.51198e-06
4.5144e-06
4.51615e-06
4.51769e-06
4.51847e-06
4.38502e-06
4.25993e-06
4.24524e-06
4.30878e-06
4.38597e-06
4.44093e-06
4.47933e-06
4.50051e-06
4.50967e-06
4.51302e-06
4.51437e-06
4.50904e-06
4.50813e-06
4.50713e-06
4.50911e-06
4.51198e-06
4.51436e-06
4.51598e-06
4.51727e-06
4.51851e-06
4.51499e-06
4.51099e-06
4.51029e-06
4.51252e-06
4.51482e-06
4.51526e-06
4.51536e-06
4.51524e-06
4.51509e-06
4.51506e-06
4.51528e-06
4.50927e-06
4.50817e-06
4.50706e-06
4.50901e-06
4.51188e-06
4.51424e-06
4.51582e-06
4.51697e-06
4.51792e-06
4.51851e-06
4.51851e-06
4.51841e-06
4.51871e-06
4.51885e-06
4.51819e-06
4.51727e-06
4.5164e-06
4.51583e-06
4.51558e-06
4.51565e-06
4.50933e-06
4.50809e-06
4.50688e-06
4.5088e-06
4.51167e-06
4.514e-06
4.51551e-06
4.51656e-06
4.51738e-06
4.51802e-06
4.51829e-06
4.51838e-06
4.51859e-06
4.51858e-06
4.518e-06
4.51724e-06
4.51651e-06
4.51604e-06
4.5158e-06
4.51582e-06
4.50927e-06
4.50791e-06
4.50662e-06
4.50852e-06
4.51139e-06
4.51371e-06
4.51518e-06
4.51615e-06
4.51684e-06
4.51742e-06
4.51773e-06
4.51791e-06
4.51814e-06
4.51814e-06
4.5177e-06
4.51712e-06
4.51654e-06
4.51614e-06
4.5159e-06
4.51586e-06
4.50911e-06
4.50765e-06
4.50629e-06
4.50819e-06
4.51105e-06
4.51336e-06
4.51478e-06
4.51569e-06
4.51631e-06
4.51686e-06
4.51722e-06
4.51747e-06
4.51769e-06
4.5177e-06
4.51736e-06
4.51692e-06
4.51645e-06
4.51611e-06
4.51587e-06
4.51577e-06
4.50889e-06
4.50734e-06
4.50593e-06
4.50782e-06
4.51068e-06
4.51298e-06
4.51437e-06
4.51522e-06
4.51578e-06
4.51629e-06
4.51666e-06
4.51695e-06
4.5172e-06
4.51725e-06
4.51702e-06
4.51669e-06
4.51631e-06
4.51601e-06
4.51576e-06
4.51562e-06
4.50861e-06
4.507e-06
4.50555e-06
4.50743e-06
4.51028e-06
4.51257e-06
4.51393e-06
4.51474e-06
4.51525e-06
4.51574e-06
4.51612e-06
4.51645e-06
4.51671e-06
4.5168e-06
4.51665e-06
4.51642e-06
4.51611e-06
4.51584e-06
4.51557e-06
4.5154e-06
4.5083e-06
4.50663e-06
4.50515e-06
4.50703e-06
4.50988e-06
4.51216e-06
4.51348e-06
4.51425e-06
4.51472e-06
4.51519e-06
4.51557e-06
4.51592e-06
4.51622e-06
4.51636e-06
4.51629e-06
4.51613e-06
4.51588e-06
4.51564e-06
4.51535e-06
4.51514e-06
4.50797e-06
4.50625e-06
4.50474e-06
4.50662e-06
4.50947e-06
4.51174e-06
4.51302e-06
4.51377e-06
4.5142e-06
4.51465e-06
4.51504e-06
4.51542e-06
4.51574e-06
4.51592e-06
4.51593e-06
4.51583e-06
4.51563e-06
4.5154e-06
4.51511e-06
4.51485e-06
4.50762e-06
4.50587e-06
4.50434e-06
4.50622e-06
4.50906e-06
4.51131e-06
4.51257e-06
4.51329e-06
4.51369e-06
4.51413e-06
4.51453e-06
4.51494e-06
4.51528e-06
4.5155e-06
4.51557e-06
4.51554e-06
4.51537e-06
4.51517e-06
4.51485e-06
4.51455e-06
4.50728e-06
4.50549e-06
4.50395e-06
4.50583e-06
4.50866e-06
4.51091e-06
4.51213e-06
4.51282e-06
4.51319e-06
4.51363e-06
4.51404e-06
4.51447e-06
4.51485e-06
4.51511e-06
4.51524e-06
4.51527e-06
4.51514e-06
4.51495e-06
4.5146e-06
4.51426e-06
4.50692e-06
4.50511e-06
4.50356e-06
4.50545e-06
4.50827e-06
4.51051e-06
4.5117e-06
4.51235e-06
4.5127e-06
4.51314e-06
4.51356e-06
4.51402e-06
4.51442e-06
4.51472e-06
4.51492e-06
4.515e-06
4.5149e-06
4.51472e-06
4.51434e-06
4.51395e-06
4.5066e-06
4.50476e-06
4.50323e-06
4.50511e-06
4.50792e-06
4.51015e-06
4.5113e-06
4.51192e-06
4.51225e-06
4.5127e-06
4.51313e-06
4.51363e-06
4.51406e-06
4.51441e-06
4.51467e-06
4.5148e-06
4.51473e-06
4.51455e-06
4.51412e-06
4.51368e-06
4.50623e-06
4.50438e-06
4.50285e-06
4.50475e-06
4.50754e-06
4.50976e-06
4.51088e-06
4.51147e-06
4.51176e-06
4.51223e-06
4.51268e-06
4.51321e-06
4.51368e-06
4.51406e-06
4.51438e-06
4.51456e-06
4.51452e-06
4.51434e-06
4.51386e-06
4.51336e-06
4.50596e-06
4.50409e-06
4.5026e-06
4.5045e-06
4.50728e-06
4.50948e-06
4.51055e-06
4.51111e-06
4.51138e-06
4.51186e-06
4.51235e-06
4.51292e-06
4.51342e-06
4.51385e-06
4.51423e-06
4.51447e-06
4.51445e-06
4.51428e-06
4.51373e-06
4.51315e-06
4.50556e-06
4.50369e-06
4.50223e-06
4.50414e-06
4.5069e-06
4.5091e-06
4.51013e-06
4.51065e-06
4.5109e-06
4.51141e-06
4.51192e-06
4.51254e-06
4.51307e-06
4.51353e-06
4.51398e-06
4.51427e-06
4.51427e-06
4.5141e-06
4.51348e-06
4.51281e-06
4.50536e-06
4.50349e-06
4.50209e-06
4.504e-06
4.50674e-06
4.50893e-06
4.50991e-06
4.51039e-06
4.51061e-06
4.51115e-06
4.51171e-06
4.51238e-06
4.51295e-06
4.51345e-06
4.51398e-06
4.51433e-06
4.51436e-06
4.51417e-06
4.51346e-06
4.51268e-06
4.50492e-06
4.50306e-06
4.50173e-06
4.50364e-06
4.50637e-06
4.50855e-06
4.50949e-06
4.50992e-06
4.51013e-06
4.51071e-06
4.51132e-06
4.51204e-06
4.51264e-06
4.51318e-06
4.51378e-06
4.5142e-06
4.51423e-06
4.51404e-06
4.51322e-06
4.51232e-06
4.50483e-06
4.50299e-06
4.50172e-06
4.50364e-06
4.50634e-06
4.50852e-06
4.5094e-06
4.50977e-06
4.50994e-06
4.51057e-06
4.51123e-06
4.51203e-06
4.51267e-06
4.51326e-06
4.51397e-06
4.51446e-06
4.51453e-06
4.51432e-06
4.51338e-06
4.51232e-06
4.50431e-06
4.50249e-06
4.50132e-06
4.50324e-06
4.50591e-06
4.50809e-06
4.50891e-06
4.50923e-06
4.50938e-06
4.51007e-06
4.51079e-06
4.51165e-06
4.51233e-06
4.51296e-06
4.51379e-06
4.51436e-06
4.51446e-06
4.51422e-06
4.51313e-06
4.51191e-06
4.50435e-06
4.50257e-06
4.50151e-06
4.50343e-06
4.50607e-06
4.50823e-06
4.50897e-06
4.50921e-06
4.50934e-06
4.51009e-06
4.51087e-06
4.5118e-06
4.51251e-06
4.51319e-06
4.51417e-06
4.51486e-06
4.51502e-06
4.51475e-06
4.51347e-06
4.51206e-06
4.50381e-06
4.50209e-06
4.50115e-06
4.50306e-06
4.50565e-06
4.5078e-06
4.50846e-06
4.50865e-06
4.50876e-06
4.50961e-06
4.51047e-06
4.51147e-06
4.51218e-06
4.51289e-06
4.51402e-06
4.51483e-06
4.51506e-06
4.51475e-06
4.51326e-06
4.51165e-06
4.50284e-06
4.5011e-06
4.49933e-06
4.50138e-06
4.50476e-06
4.50635e-06
4.5071e-06
4.50817e-06
4.50777e-06
4.50903e-06
4.5091e-06
4.51043e-06
4.51032e-06
4.51122e-06
4.51193e-06
4.51205e-06
4.51327e-06
4.51287e-06
4.51197e-06
4.51125e-06
1.71601e-06
1.55246e-06
1.51096e-06
1.61135e-06
1.84378e-06
2.16687e-06
2.51972e-06
2.85323e-06
3.13717e-06
3.35456e-06
3.49622e-06
3.5588e-06
3.54539e-06
3.46586e-06
3.33282e-06
3.15271e-06
2.92808e-06
2.65983e-06
2.35419e-06
2.03337e-06
1.76783e-06
2.1519e-06
2.63419e-06
3.12167e-06
3.54246e-06
3.863e-06
4.08792e-06
4.23266e-06
4.31415e-06
4.34473e-06
4.32161e-06
4.21415e-06
3.98513e-06
3.63373e-06
3.20176e-06
2.74477e-06
2.29993e-06
1.9187e-06
1.66839e-06
1.6117e-06
3.02442e-06
3.52229e-06
3.90869e-06
4.17926e-06
4.35458e-06
4.45594e-06
4.50812e-06
4.53726e-06
4.67686e-06
5.08236e-06
5.68088e-06
6.09279e-06
5.9438e-06
5.18928e-06
4.12977e-06
3.12954e-06
2.39271e-06
2.0649e-06
2.15264e-06
2.53216e-06
3.90261e-06
4.1864e-06
4.35978e-06
4.45599e-06
4.50567e-06
4.52965e-06
4.54373e-06
4.58652e-06
5.59439e-06
8.09836e-06
1.1181e-05
1.32185e-05
1.31443e-05
1.10732e-05
8.2465e-06
5.63981e-06
3.92948e-06
3.24469e-06
3.2584e-06
3.56812e-06
4.43177e-06
4.47772e-06
4.50653e-06
4.52491e-06
4.53721e-06
4.54545e-06
4.55393e-06
4.66897e-06
8.14268e-06
1.47805e-05
2.10757e-05
2.46099e-05
2.45198e-05
2.13856e-05
1.63591e-05
1.12878e-05
7.58186e-06
5.54134e-06
4.70648e-06
4.47031e-06
4.58549e-06
4.54566e-06
4.53509e-06
4.53602e-06
4.5401e-06
4.5447e-06
4.55198e-06
4.73243e-06
1.12451e-05
2.03024e-05
2.62171e-05
2.94874e-05
2.91348e-05
2.536e-05
2.00396e-05
1.43544e-05
9.65148e-06
6.7287e-06
5.33526e-06
4.78823e-06
4.73409e-06
4.59013e-06
4.54776e-06
4.53989e-06
4.54175e-06
4.54565e-06
4.55256e-06
4.7764e-06
1.27998e-05
2.04046e-05
2.35595e-05
3.13386e-05
4.6079e-05
5.40135e-05
4.82041e-05
3.38909e-05
1.97482e-05
1.08427e-05
6.79296e-06
5.2717e-06
4.64034e-06
4.56121e-06
4.54114e-06
4.53927e-06
4.54185e-06
4.54517e-06
4.54955e-06
4.59296e-06
7.28021e-06
8.66129e-06
8.36948e-06
1.53227e-05
3.35391e-05
4.74631e-05
4.47752e-05
3.06069e-05
1.68661e-05
9.14809e-06
6.03474e-06
4.97804e-06
4.55848e-06
4.5409e-06
4.5376e-06
4.53975e-06
4.54308e-06
4.54638e-06
4.5498e-06
4.55533e-06
4.59837e-06
3.75447e-06
2.72078e-06
4.43471e-06
1.26429e-05
2.13568e-05
2.09491e-05
1.44549e-05
8.81675e-06
6.02888e-06
4.98744e-06
4.6575e-06
4.53781e-06
4.53824e-06
4.53881e-06
4.54131e-06
4.54427e-06
4.54715e-06
4.54994e-06
4.55457e-06
4.54061e-06
3.54591e-06
2.47131e-06
2.24183e-06
4.22147e-06
7.04646e-06
7.46538e-06
6.28418e-06
5.25936e-06
4.77201e-06
4.60084e-06
4.55353e-06
4.53701e-06
4.53953e-06
4.54034e-06
4.54278e-06
4.54563e-06
4.54833e-06
4.55069e-06
4.55481e-06
4.53881e-06
3.44771e-06
2.39788e-06
1.87206e-06
2.25029e-06
3.28219e-06
4.03554e-06
4.35221e-06
4.46461e-06
4.50924e-06
4.52905e-06
4.53826e-06
4.53941e-06
4.54137e-06
4.54182e-06
4.54401e-06
4.54669e-06
4.54918e-06
4.55136e-06
4.55505e-06
4.54036e-06
3.37751e-06
2.35583e-06
1.84516e-06
2.00172e-06
2.74165e-06
3.54808e-06
4.0928e-06
4.36917e-06
4.48422e-06
4.52585e-06
4.54001e-06
4.54136e-06
4.54272e-06
4.54291e-06
4.545e-06
4.54765e-06
4.55002e-06
4.55209e-06
4.55525e-06
4.54032e-06
3.34253e-06
2.30664e-06
1.76794e-06
1.94319e-06
2.69788e-06
3.52454e-06
4.08844e-06
4.37298e-06
4.48892e-06
4.52944e-06
4.54258e-06
4.5429e-06
4.54379e-06
4.54373e-06
4.54572e-06
4.54831e-06
4.55057e-06
4.55251e-06
4.55521e-06
4.54267e-06
3.32132e-06
2.35205e-06
1.87334e-06
2.04766e-06
2.76634e-06
3.56063e-06
4.10676e-06
4.38256e-06
4.49412e-06
4.53253e-06
4.54465e-06
4.5441e-06
4.54458e-06
4.54431e-06
4.54624e-06
4.54883e-06
4.55104e-06
4.55293e-06
4.55528e-06
4.54362e-06
3.25942e-06
2.18528e-06
1.75636e-06
2.06187e-06
2.8421e-06
3.62846e-06
4.14621e-06
4.40091e-06
4.5019e-06
4.536e-06
4.5465e-06
4.54516e-06
4.54516e-06
4.54469e-06
4.54655e-06
4.5491e-06
4.55122e-06
4.55279e-06
4.5543e-06
4.54228e-06
3.46343e-06
2.22048e-06
1.83483e-06
2.28182e-06
3.10734e-06
3.82854e-06
4.25413e-06
4.4468e-06
4.51859e-06
4.54174e-06
4.54868e-06
4.54613e-06
4.54558e-06
4.5449e-06
4.54672e-06
4.54926e-06
4.55137e-06
4.5529e-06
4.55427e-06
4.55491e-06
4.41917e-06
4.30175e-06
4.29582e-06
4.36095e-06
4.43394e-06
4.48439e-06
4.51966e-06
4.53892e-06
4.54712e-06
4.55007e-06
4.55124e-06
4.54653e-06
4.54575e-06
4.54495e-06
4.54672e-06
4.54925e-06
4.55131e-06
4.55272e-06
4.55386e-06
4.55496e-06
4.55144e-06
4.54786e-06
4.54748e-06
4.54963e-06
4.55161e-06
4.55195e-06
4.55204e-06
4.55194e-06
4.55182e-06
4.5518e-06
4.55199e-06
4.54672e-06
4.54578e-06
4.54488e-06
4.54663e-06
4.54915e-06
4.5512e-06
4.55256e-06
4.55357e-06
4.55439e-06
4.5549e-06
4.55488e-06
4.55479e-06
4.55505e-06
4.55512e-06
4.5545e-06
4.55368e-06
4.55293e-06
4.55244e-06
4.55224e-06
4.55231e-06
4.54676e-06
4.5457e-06
4.54471e-06
4.54644e-06
4.54895e-06
4.55098e-06
4.55229e-06
4.5532e-06
4.55391e-06
4.55446e-06
4.55468e-06
4.55474e-06
4.55491e-06
4.55486e-06
4.55433e-06
4.55366e-06
4.55303e-06
4.55262e-06
4.55242e-06
4.55245e-06
4.54671e-06
4.54554e-06
4.54448e-06
4.5462e-06
4.54871e-06
4.55073e-06
4.55199e-06
4.55284e-06
4.55344e-06
4.55393e-06
4.55419e-06
4.55433e-06
4.55451e-06
4.55448e-06
4.55407e-06
4.55356e-06
4.55305e-06
4.55271e-06
4.55251e-06
4.55248e-06
4.54657e-06
4.54531e-06
4.5442e-06
4.54591e-06
4.54841e-06
4.55042e-06
4.55165e-06
4.55244e-06
4.55297e-06
4.55344e-06
4.55374e-06
4.55394e-06
4.55412e-06
4.5541e-06
4.55378e-06
4.55339e-06
4.55298e-06
4.55268e-06
4.55248e-06
4.5524e-06
4.54638e-06
4.54504e-06
4.54389e-06
4.54559e-06
4.54809e-06
4.55009e-06
4.55129e-06
4.55203e-06
4.55251e-06
4.55295e-06
4.55326e-06
4.5535e-06
4.55369e-06
4.55372e-06
4.55349e-06
4.55319e-06
4.55286e-06
4.5526e-06
4.55239e-06
4.55227e-06
4.54614e-06
4.54475e-06
4.54356e-06
4.54526e-06
4.54775e-06
4.54973e-06
4.5509e-06
4.55161e-06
4.55205e-06
4.55247e-06
4.55279e-06
4.55306e-06
4.55327e-06
4.55333e-06
4.55318e-06
4.55296e-06
4.55269e-06
4.55246e-06
4.55223e-06
4.55208e-06
4.54587e-06
4.54443e-06
4.54322e-06
4.54491e-06
4.5474e-06
4.54938e-06
4.55052e-06
4.55119e-06
4.55159e-06
4.55199e-06
4.55232e-06
4.55261e-06
4.55285e-06
4.55294e-06
4.55287e-06
4.55272e-06
4.5525e-06
4.55228e-06
4.55204e-06
4.55186e-06
4.54559e-06
4.54411e-06
4.54287e-06
4.54456e-06
4.54705e-06
4.54901e-06
4.55013e-06
4.55077e-06
4.55114e-06
4.55153e-06
4.55186e-06
4.55218e-06
4.55244e-06
4.55257e-06
4.55256e-06
4.55247e-06
4.55228e-06
4.55209e-06
4.55183e-06
4.55162e-06
4.54529e-06
4.54378e-06
4.54253e-06
4.54422e-06
4.5467e-06
4.54865e-06
4.54974e-06
4.55035e-06
4.5507e-06
4.55108e-06
4.55142e-06
4.55176e-06
4.55205e-06
4.55222e-06
4.55226e-06
4.55222e-06
4.55207e-06
4.55189e-06
4.55161e-06
4.55136e-06
4.545e-06
4.54346e-06
4.54219e-06
4.54389e-06
4.54636e-06
4.54831e-06
4.54936e-06
4.54995e-06
4.55028e-06
4.55066e-06
4.551e-06
4.55137e-06
4.55168e-06
4.55188e-06
4.55198e-06
4.55199e-06
4.55187e-06
4.5517e-06
4.5514e-06
4.55111e-06
4.5447e-06
4.54313e-06
4.54186e-06
4.54356e-06
4.54602e-06
4.54796e-06
4.54899e-06
4.54955e-06
4.54986e-06
4.55024e-06
4.55059e-06
4.55098e-06
4.55132e-06
4.55156e-06
4.55171e-06
4.55177e-06
4.55167e-06
4.55151e-06
4.55118e-06
4.55085e-06
4.54443e-06
4.54284e-06
4.54158e-06
4.54328e-06
4.54573e-06
4.54766e-06
4.54865e-06
4.54919e-06
4.54947e-06
4.54986e-06
4.55023e-06
4.55065e-06
4.55101e-06
4.55129e-06
4.5515e-06
4.5516e-06
4.55152e-06
4.55137e-06
4.551e-06
4.55062e-06
4.54411e-06
4.54251e-06
4.54127e-06
4.54297e-06
4.54541e-06
4.54732e-06
4.54829e-06
4.5488e-06
4.54906e-06
4.54946e-06
4.54985e-06
4.55029e-06
4.55068e-06
4.551e-06
4.55125e-06
4.5514e-06
4.55134e-06
4.55119e-06
4.55078e-06
4.55035e-06
4.54389e-06
4.54228e-06
4.54105e-06
4.54276e-06
4.54519e-06
4.54709e-06
4.54802e-06
4.5485e-06
4.54874e-06
4.54915e-06
4.54957e-06
4.55005e-06
4.55047e-06
4.55082e-06
4.55114e-06
4.55133e-06
4.5513e-06
4.55114e-06
4.55067e-06
4.55018e-06
4.54354e-06
4.54193e-06
4.54074e-06
4.54245e-06
4.54487e-06
4.54677e-06
4.54766e-06
4.54811e-06
4.54833e-06
4.54877e-06
4.54921e-06
4.54973e-06
4.55018e-06
4.55055e-06
4.55093e-06
4.55116e-06
4.55114e-06
4.55099e-06
4.55046e-06
4.54988e-06
4.54338e-06
4.54177e-06
4.54063e-06
4.54234e-06
4.54474e-06
4.54663e-06
4.54748e-06
4.54789e-06
4.54809e-06
4.54856e-06
4.54903e-06
4.5496e-06
4.55008e-06
4.55049e-06
4.55094e-06
4.55122e-06
4.55123e-06
4.55106e-06
4.55045e-06
4.54979e-06
4.54301e-06
4.54141e-06
4.54032e-06
4.54204e-06
4.54442e-06
4.54631e-06
4.54712e-06
4.54749e-06
4.54767e-06
4.54818e-06
4.5487e-06
4.54931e-06
4.54982e-06
4.55026e-06
4.55077e-06
4.55111e-06
4.55112e-06
4.55095e-06
4.55025e-06
4.54948e-06
4.54294e-06
4.54135e-06
4.54033e-06
4.54204e-06
4.5444e-06
4.54629e-06
4.54704e-06
4.54737e-06
4.54753e-06
4.54807e-06
4.54863e-06
4.54931e-06
4.54985e-06
4.55034e-06
4.55094e-06
4.55135e-06
4.55138e-06
4.5512e-06
4.55039e-06
4.54949e-06
4.54249e-06
4.54092e-06
4.53998e-06
4.5417e-06
4.54403e-06
4.54592e-06
4.54662e-06
4.54691e-06
4.54705e-06
4.54764e-06
4.54826e-06
4.54899e-06
4.54956e-06
4.55009e-06
4.55078e-06
4.55126e-06
4.55133e-06
4.55112e-06
4.55017e-06
4.54913e-06
4.54253e-06
4.541e-06
4.54016e-06
4.54188e-06
4.54418e-06
4.54605e-06
4.54669e-06
4.5469e-06
4.54701e-06
4.54767e-06
4.54834e-06
4.54913e-06
4.54972e-06
4.5503e-06
4.55113e-06
4.5517e-06
4.55182e-06
4.55158e-06
4.55047e-06
4.54927e-06
4.54208e-06
4.5406e-06
4.53985e-06
4.54156e-06
4.54382e-06
4.54569e-06
4.54625e-06
4.54642e-06
4.54653e-06
4.54726e-06
4.548e-06
4.54885e-06
4.54945e-06
4.55005e-06
4.55101e-06
4.55169e-06
4.55186e-06
4.55158e-06
4.5503e-06
4.54892e-06
4.54163e-06
4.54017e-06
4.53872e-06
4.54054e-06
4.54349e-06
4.54486e-06
4.54549e-06
4.54645e-06
4.54608e-06
4.54723e-06
4.54726e-06
4.54846e-06
4.54832e-06
4.54914e-06
4.54977e-06
4.54981e-06
4.55086e-06
4.55045e-06
4.54963e-06
4.54901e-06
1.71868e-06
1.56991e-06
1.55871e-06
1.69655e-06
1.96427e-06
2.31342e-06
2.68093e-06
3.02039e-06
3.30395e-06
3.51581e-06
3.64727e-06
3.69574e-06
3.66571e-06
3.5688e-06
3.41857e-06
3.22106e-06
2.9782e-06
2.69071e-06
2.36679e-06
2.03392e-06
1.85141e-06
2.27324e-06
2.77884e-06
3.27331e-06
3.68844e-06
3.99834e-06
4.21203e-06
4.34657e-06
4.41817e-06
4.43755e-06
4.4009e-06
4.27603e-06
4.02494e-06
3.64946e-06
3.19587e-06
2.72293e-06
2.27049e-06
1.89496e-06
1.66736e-06
1.64891e-06
3.1492e-06
3.6437e-06
4.02013e-06
4.2787e-06
4.44252e-06
4.53411e-06
4.58054e-06
4.60696e-06
4.75813e-06
5.19976e-06
5.84685e-06
6.27975e-06
6.09866e-06
5.27746e-06
4.16251e-06
3.13319e-06
2.40111e-06
2.10539e-06
2.2334e-06
2.64326e-06
4.00512e-06
4.27411e-06
4.4349e-06
4.52169e-06
4.56501e-06
4.58565e-06
4.59846e-06
4.64464e-06
5.76027e-06
8.5033e-06
1.18433e-05
1.39879e-05
1.37974e-05
1.14801e-05
8.45203e-06
5.73486e-06
4.00316e-06
3.33647e-06
3.36666e-06
3.67875e-06
4.50815e-06
4.53945e-06
4.56058e-06
4.57472e-06
4.58467e-06
4.59192e-06
4.60038e-06
4.72782e-06
8.58353e-06
1.5855e-05
2.2693e-05
2.64509e-05
2.62071e-05
2.26747e-05
1.7165e-05
1.17499e-05
7.86194e-06
5.72859e-06
4.83903e-06
4.56809e-06
4.64194e-06
4.59347e-06
4.57965e-06
4.5789e-06
4.58217e-06
4.58654e-06
4.59418e-06
4.79556e-06
1.20681e-05
2.19898e-05
2.84547e-05
3.20198e-05
3.14574e-05
2.72517e-05
2.13603e-05
1.51517e-05
1.00879e-05
6.9544e-06
5.45598e-06
4.86289e-06
4.77937e-06
4.63111e-06
4.58789e-06
4.57941e-06
4.58093e-06
4.58472e-06
4.59202e-06
4.84337e-06
1.38609e-05
2.2197e-05
2.57456e-05
3.46944e-05
5.0738e-05
5.84515e-05
5.13619e-05
3.56566e-05
2.05534e-05
1.1152e-05
6.91011e-06
5.3306e-06
4.67933e-06
4.5992e-06
4.57905e-06
4.57683e-06
4.57918e-06
4.58245e-06
4.58703e-06
4.63543e-06
7.67536e-06
9.24551e-06
9.04784e-06
1.72371e-05
3.73309e-05
5.16729e-05
4.77699e-05
3.21246e-05
1.74461e-05
9.33257e-06
6.10259e-06
5.02008e-06
4.59584e-06
4.57778e-06
4.57436e-06
4.57616e-06
4.57923e-06
4.58242e-06
4.58594e-06
4.59187e-06
4.64296e-06
3.75928e-06
2.71835e-06
4.84338e-06
1.40837e-05
2.32116e-05
2.22347e-05
1.50393e-05
9.01925e-06
6.10239e-06
5.03009e-06
4.69469e-06
4.57434e-06
4.57425e-06
4.57467e-06
4.57685e-06
4.57956e-06
4.58233e-06
4.58516e-06
4.59004e-06
4.57773e-06
3.53615e-06
2.45309e-06
2.30588e-06
4.56171e-06
7.52791e-06
7.7971e-06
6.44199e-06
5.33264e-06
4.81785e-06
4.63939e-06
4.59007e-06
4.57278e-06
4.57487e-06
4.57559e-06
4.57775e-06
4.58033e-06
4.58287e-06
4.5852e-06
4.58945e-06
4.57489e-06
3.43421e-06
2.38335e-06
1.88397e-06
2.32555e-06
3.39887e-06
4.13528e-06
4.4221e-06
4.51538e-06
4.5508e-06
4.5666e-06
4.57408e-06
4.57455e-06
4.57622e-06
4.57663e-06
4.57857e-06
4.58097e-06
4.58327e-06
4.58537e-06
4.58908e-06
4.57563e-06
3.36051e-06
2.34039e-06
1.84732e-06
2.03263e-06
2.79925e-06
3.61207e-06
4.14909e-06
4.41563e-06
4.52409e-06
4.56238e-06
4.57505e-06
4.57605e-06
4.57723e-06
4.57742e-06
4.57928e-06
4.58163e-06
4.58378e-06
4.58571e-06
4.5888e-06
4.57503e-06
3.32385e-06
2.28744e-06
1.76378e-06
1.96611e-06
2.74704e-06
3.58294e-06
4.14163e-06
4.41763e-06
4.52764e-06
4.5652e-06
4.57707e-06
4.57728e-06
4.57806e-06
4.57804e-06
4.5798e-06
4.58209e-06
4.5841e-06
4.58588e-06
4.58845e-06
4.57704e-06
3.30195e-06
2.3355e-06
1.86954e-06
2.06826e-06
2.81262e-06
3.61682e-06
4.15846e-06
4.42618e-06
4.53212e-06
4.56777e-06
4.57874e-06
4.57825e-06
4.57867e-06
4.57849e-06
4.5802e-06
4.58247e-06
4.58441e-06
4.58611e-06
4.58828e-06
4.5777e-06
3.23778e-06
2.16512e-06
1.75457e-06
2.08712e-06
2.89122e-06
3.6849e-06
4.19695e-06
4.44353e-06
4.53919e-06
4.57078e-06
4.58028e-06
4.57913e-06
4.57913e-06
4.57877e-06
4.58043e-06
4.58266e-06
4.5845e-06
4.58588e-06
4.58723e-06
4.57625e-06
3.44942e-06
2.1929e-06
1.83618e-06
2.31977e-06
3.16689e-06
3.888e-06
4.30374e-06
4.48777e-06
4.55483e-06
4.57597e-06
4.58217e-06
4.57994e-06
4.57946e-06
4.57893e-06
4.58055e-06
4.58277e-06
4.5846e-06
4.58593e-06
4.58714e-06
4.58766e-06
4.44943e-06
4.33979e-06
4.34234e-06
4.40872e-06
4.47744e-06
4.52366e-06
4.55602e-06
4.57348e-06
4.58079e-06
4.58337e-06
4.58437e-06
4.58027e-06
4.57959e-06
4.57896e-06
4.58054e-06
4.58274e-06
4.58452e-06
4.58575e-06
4.58674e-06
4.58771e-06
4.5842e-06
4.58101e-06
4.58092e-06
4.58298e-06
4.58467e-06
4.58494e-06
4.58501e-06
4.58494e-06
4.58484e-06
4.58482e-06
4.585e-06
4.58042e-06
4.57961e-06
4.57889e-06
4.58045e-06
4.58264e-06
4.58442e-06
4.58559e-06
4.58646e-06
4.58717e-06
4.5876e-06
4.58757e-06
4.58748e-06
4.5877e-06
4.58771e-06
4.58715e-06
4.58643e-06
4.58577e-06
4.58536e-06
4.58519e-06
4.58526e-06
4.58045e-06
4.57953e-06
4.57874e-06
4.58028e-06
4.58246e-06
4.58422e-06
4.58534e-06
4.58613e-06
4.58675e-06
4.58721e-06
4.58738e-06
4.58742e-06
4.58755e-06
4.58748e-06
4.587e-06
4.5864e-06
4.58586e-06
4.58551e-06
4.58535e-06
4.58537e-06
4.5804e-06
4.57939e-06
4.57854e-06
4.58007e-06
4.58225e-06
4.58399e-06
4.58508e-06
4.5858e-06
4.58632e-06
4.58674e-06
4.58695e-06
4.58706e-06
4.5872e-06
4.58714e-06
4.58677e-06
4.58631e-06
4.58588e-06
4.58558e-06
4.58541e-06
4.5854e-06
4.58027e-06
4.57919e-06
4.5783e-06
4.57982e-06
4.58199e-06
4.58372e-06
4.58477e-06
4.58545e-06
4.58592e-06
4.58632e-06
4.58656e-06
4.58672e-06
4.58686e-06
4.58681e-06
4.58652e-06
4.58617e-06
4.58582e-06
4.58556e-06
4.58539e-06
4.58533e-06
4.58011e-06
4.57896e-06
4.57803e-06
4.57954e-06
4.58172e-06
4.58343e-06
4.58446e-06
4.5851e-06
4.58552e-06
4.58589e-06
4.58615e-06
4.58634e-06
4.58649e-06
4.58648e-06
4.58628e-06
4.58601e-06
4.58572e-06
4.58549e-06
4.58531e-06
4.58522e-06
4.5799e-06
4.57871e-06
4.57774e-06
4.57926e-06
4.58142e-06
4.58313e-06
4.58413e-06
4.58474e-06
4.58512e-06
4.58548e-06
4.58574e-06
4.58596e-06
4.58613e-06
4.58615e-06
4.58601e-06
4.58581e-06
4.58557e-06
4.58537e-06
4.58518e-06
4.58505e-06
4.57967e-06
4.57844e-06
4.57745e-06
4.57896e-06
4.58112e-06
4.58282e-06
4.5838e-06
4.58437e-06
4.58472e-06
4.58507e-06
4.58534e-06
4.58558e-06
4.58577e-06
4.58583e-06
4.58575e-06
4.58561e-06
4.58541e-06
4.58522e-06
4.58502e-06
4.58487e-06
4.57943e-06
4.57816e-06
4.57716e-06
4.57866e-06
4.58082e-06
4.58251e-06
4.58346e-06
4.58401e-06
4.58434e-06
4.58467e-06
4.58495e-06
4.58521e-06
4.58542e-06
4.58551e-06
4.58549e-06
4.5854e-06
4.58523e-06
4.58506e-06
4.58484e-06
4.58466e-06
4.57918e-06
4.57788e-06
4.57686e-06
4.57837e-06
4.58052e-06
4.5822e-06
4.58313e-06
4.58366e-06
4.58396e-06
4.58429e-06
4.58457e-06
4.58485e-06
4.58508e-06
4.58521e-06
4.58523e-06
4.58519e-06
4.58505e-06
4.58489e-06
4.58465e-06
4.58445e-06
4.57894e-06
4.57761e-06
4.57658e-06
4.57809e-06
4.58023e-06
4.58191e-06
4.58281e-06
4.58332e-06
4.5836e-06
4.58392e-06
4.58421e-06
4.58452e-06
4.58477e-06
4.58493e-06
4.585e-06
4.585e-06
4.58488e-06
4.58473e-06
4.58447e-06
4.58424e-06
4.57868e-06
4.57733e-06
4.5763e-06
4.57781e-06
4.57995e-06
4.58161e-06
4.58249e-06
4.58298e-06
4.58324e-06
4.58357e-06
4.58386e-06
4.58419e-06
4.58446e-06
4.58465e-06
4.58477e-06
4.58481e-06
4.58471e-06
4.58457e-06
4.58429e-06
4.58401e-06
4.57845e-06
4.57709e-06
4.57607e-06
4.57758e-06
4.5797e-06
4.58136e-06
4.58221e-06
4.58267e-06
4.58291e-06
4.58325e-06
4.58356e-06
4.58391e-06
4.58421e-06
4.58443e-06
4.58459e-06
4.58467e-06
4.58459e-06
4.58446e-06
4.58414e-06
4.58382e-06
4.57818e-06
4.57681e-06
4.5758e-06
4.57731e-06
4.57943e-06
4.58107e-06
4.5819e-06
4.58234e-06
4.58256e-06
4.58291e-06
4.58323e-06
4.58361e-06
4.58393e-06
4.58418e-06
4.58439e-06
4.5845e-06
4.58444e-06
4.58431e-06
4.58395e-06
4.58359e-06
4.578e-06
4.57662e-06
4.57563e-06
4.57714e-06
4.57925e-06
4.58088e-06
4.58167e-06
4.58209e-06
4.5823e-06
4.58265e-06
4.583e-06
4.58341e-06
4.58376e-06
4.58404e-06
4.5843e-06
4.58445e-06
4.58441e-06
4.58427e-06
4.58387e-06
4.58345e-06
4.57771e-06
4.57633e-06
4.57536e-06
4.57688e-06
4.57897e-06
4.5806e-06
4.58137e-06
4.58176e-06
4.58195e-06
4.58233e-06
4.5827e-06
4.58314e-06
4.58351e-06
4.58382e-06
4.58412e-06
4.5843e-06
4.58428e-06
4.58414e-06
4.58368e-06
4.5832e-06
4.57758e-06
4.5762e-06
4.57527e-06
4.5768e-06
4.57887e-06
4.5805e-06
4.58122e-06
4.58158e-06
4.58175e-06
4.58215e-06
4.58256e-06
4.58303e-06
4.58343e-06
4.58377e-06
4.58414e-06
4.58436e-06
4.58436e-06
4.58421e-06
4.58369e-06
4.58313e-06
4.57726e-06
4.57589e-06
4.57501e-06
4.57654e-06
4.5786e-06
4.58022e-06
4.58091e-06
4.58124e-06
4.5814e-06
4.58183e-06
4.58227e-06
4.58279e-06
4.58321e-06
4.58358e-06
4.584e-06
4.58427e-06
4.58427e-06
4.58411e-06
4.58351e-06
4.58286e-06
4.57721e-06
4.57585e-06
4.57503e-06
4.57655e-06
4.57859e-06
4.58021e-06
4.58086e-06
4.58115e-06
4.58128e-06
4.58175e-06
4.58223e-06
4.5828e-06
4.58325e-06
4.58366e-06
4.58415e-06
4.58448e-06
4.5845e-06
4.58433e-06
4.58364e-06
4.58288e-06
4.57683e-06
4.57549e-06
4.57473e-06
4.57626e-06
4.57828e-06
4.57989e-06
4.5805e-06
4.58075e-06
4.58087e-06
4.58139e-06
4.58191e-06
4.58253e-06
4.583e-06
4.58344e-06
4.58402e-06
4.58441e-06
4.58445e-06
4.58426e-06
4.58346e-06
4.58258e-06
4.57688e-06
4.57557e-06
4.5749e-06
4.57642e-06
4.57841e-06
4.58002e-06
4.58056e-06
4.58076e-06
4.58086e-06
4.58142e-06
4.58199e-06
4.58265e-06
4.58315e-06
4.58363e-06
4.58432e-06
4.5848e-06
4.58488e-06
4.58466e-06
4.58372e-06
4.58271e-06
4.57649e-06
4.57522e-06
4.57464e-06
4.57615e-06
4.57811e-06
4.57971e-06
4.5802e-06
4.58035e-06
4.58045e-06
4.58108e-06
4.5817e-06
4.58243e-06
4.58293e-06
4.58343e-06
4.58423e-06
4.58479e-06
4.58492e-06
4.58467e-06
4.58357e-06
4.58241e-06
4.57648e-06
4.57527e-06
4.57408e-06
4.57569e-06
4.57824e-06
4.5794e-06
4.57993e-06
4.58079e-06
4.58045e-06
4.58149e-06
4.58149e-06
4.58256e-06
4.58239e-06
4.58314e-06
4.5837e-06
4.58367e-06
4.58456e-06
4.58415e-06
4.58342e-06
4.5829e-06
1.71716e-06
1.58808e-06
1.61078e-06
1.78728e-06
2.08943e-06
2.46177e-06
2.84156e-06
3.18497e-06
3.46632e-06
3.67074e-06
3.7899e-06
3.82217e-06
3.77379e-06
3.65839e-06
3.49044e-06
3.27543e-06
3.01453e-06
2.70834e-06
2.36764e-06
2.02579e-06
1.93977e-06
2.39722e-06
2.9223e-06
3.42008e-06
3.82702e-06
4.12543e-06
4.32734e-06
4.45134e-06
4.51236e-06
4.51906e-06
4.46693e-06
4.32287e-06
4.04865e-06
3.64916e-06
3.17524e-06
2.68875e-06
2.23214e-06
1.86683e-06
1.66676e-06
1.69013e-06
3.27056e-06
3.75937e-06
4.12428e-06
4.37004e-06
4.52208e-06
4.60433e-06
4.6454e-06
4.66938e-06
4.83195e-06
5.30891e-06