/*--------------------------------*- C++ -*----------------------------------*\
| =========                 |                                                 |
| \\      /  F ield         | OpenFOAM: The Open Source CFD Toolbox           |
|  \\    /   O peration     | Version:  2.4.0                                 |
|   \\  /    A nd           | Web:      www.OpenFOAM.org                      |
|    \\/     M anipulation  |                                                 |
\*---------------------------------------------------------------------------*/
FoamFile
{
    version     2.0;
    format      ascii;
    class       volScalarField;
    location    "200";
    object      p;
}
// * * * * * * * * * * * * * * * * * * * * * * * * * * * * * * * * * * * * * //

dimensions      [0 2 -2 0 0 0 0];

internalField   nonuniform List<scalar> 
283312
(
-0.00622229
-0.00628489
-0.00652873
-0.00687249
-0.00722732
-0.00752396
-0.00775514
-0.00791608
-0.00803984
-0.00815034
-0.00826804
-0.00837953
-0.0084524
-0.00843022
-0.0082788
-0.00800573
-0.00762208
-0.00716506
-0.00671667
-0.00637588
0.00215784
0.00164785
0.00121705
0.000946142
0.00084707
0.00091383
0.00105795
0.00120032
0.00131311
0.00140442
0.00147691
0.00156199
0.00169694
0.00190343
0.00219411
0.00256692
0.00288218
0.00302936
0.00294547
0.00263099
-0.00230459
-0.00215324
-0.00192916
-0.00168834
-0.00149615
-0.00139945
-0.00138097
-0.00138655
-0.00143399
-0.00147145
-0.00149401
-0.00146287
-0.00138308
-0.00127815
-0.00123189
-0.00134308
-0.00159197
-0.00189567
-0.0021657
-0.00231359
0.00146781
0.00164144
0.00178579
0.00190098
0.00198386
0.0020522
0.00205896
0.00206617
0.00203531
0.0020541
0.00208666
0.00215073
0.00218872
0.00214622
0.00201106
0.00175816
0.00149643
0.0013042
0.00124516
0.00131823
-0.000748528
-0.00055076
-0.000434723
-0.00035704
-0.000354284
-0.000341688
-0.000353367
-0.000338938
-0.000365925
-0.000330813
-0.000316305
-0.0003493
-0.000518805
-0.000844962
-0.00128805
-0.00164526
-0.00174699
-0.00161129
-0.0013288
-0.00101394
0.00119191
0.00130165
0.0013595
0.00140511
0.00141846
0.00142549
0.00139069
0.00137778
0.00131571
0.00133775
0.00130732
0.00120505
0.000928975
0.000551039
0.00026511
0.00018075
0.00030352
0.000545227
0.000810776
0.00103482
-0.00015601
-0.00011627
-0.000109289
-0.000103463
-0.0001149
-9.01904e-05
-9.09157e-05
-6.26309e-05
-9.22469e-05
-5.84559e-05
-0.000150655
-0.000398791
-0.000815458
-0.00124612
-0.00139851
-0.00125533
-0.000945006
-0.000632117
-0.000389251
-0.00023572
0.000754519
0.000803859
0.000827461
0.000852378
0.0008406
0.000836697
0.000798999
0.000778174
0.000710088
0.000702267
0.000553127
0.000250214
-0.000153653
-0.000354742
-0.000314816
-8.91625e-05
0.000194077
0.000421498
0.000584606
0.000688947
-5.09909e-06
-2.85357e-06
-1.3463e-05
-1.49132e-05
-1.64321e-05
5.15216e-06
6.69675e-06
2.59557e-05
-1.7683e-06
2.30508e-06
-0.000187611
-0.000588754
-0.000990378
-0.00107973
-0.0008744
-0.000587583
-0.00032355
-0.000158295
-6.1124e-05
-1.80037e-05
0.000435829
0.00046057
0.000471396
0.000481909
0.000469077
0.000460507
0.000430076
0.000407362
0.000354279
0.000337073
0.000159207
-0.000207926
-0.000458956
-0.000448474
-0.000221114
2.16843e-06
0.000186584
0.000292553
0.000363961
0.000406126
4.04765e-05
3.88257e-05
3.01819e-05
3.21845e-05
3.14044e-05
4.62581e-05
4.6428e-05
6.22233e-05
4.48812e-05
6.92118e-05
-0.000106466
-0.000534076
-0.000715477
-0.000635543
-0.000395135
-0.000211083
-7.3082e-05
-9.50044e-06
2.80118e-05
3.92368e-05
0.000247406
0.000259232
0.000263041
0.000266205
0.000255027
0.000246148
0.000222563
0.000204639
0.000169375
0.000187806
5.22355e-05
-0.0002287
-0.000333459
-0.000228758
-4.95436e-05
6.44176e-05
0.000150151
0.000186906
0.000217316
0.000233461
5.2594e-05
5.27923e-05
4.84581e-05
5.20277e-05
5.08462e-05
6.20313e-05
6.1572e-05
8.47902e-05
8.12133e-05
0.000186906
7.31747e-05
-0.00027345
-0.000357674
-0.000292954
-0.000148378
-6.68544e-05
1.15113e-06
2.54648e-05
4.56943e-05
5.05618e-05
0.000143247
0.000148457
0.000148644
0.000148955
0.000139157
0.000131294
0.000112141
9.97292e-05
7.91386e-05
0.000135862
9.55423e-05
-5.34373e-05
-0.000110791
-5.6041e-05
3.08229e-05
6.78614e-05
0.000105571
0.000115531
0.000130556
0.000136429
5.11282e-05
5.29882e-05
5.16067e-05
5.52643e-05
5.40846e-05
6.30619e-05
6.33123e-05
9.16637e-05
0.000103475
0.000277812
0.000264992
-5.26464e-05
-0.000138932
-0.000141545
-7.73888e-05
-3.70153e-05
8.94625e-06
2.48234e-05
4.2071e-05
4.70937e-05
8.75189e-05
8.97436e-05
8.85199e-05
8.77544e-05
7.93927e-05
7.24769e-05
5.61046e-05
4.53452e-05
2.73578e-05
8.41954e-05
0.000194155
3.53275e-05
-2.16054e-05
-2.15591e-05
1.96504e-05
3.31681e-05
6.17609e-05
6.86372e-05
8.03751e-05
8.34635e-05
4.50838e-05
4.73708e-05
4.73336e-05
5.02553e-05
4.91794e-05
5.51998e-05
5.49898e-05
7.13019e-05
6.73946e-05
0.000105823
6.54285e-05
-3.18928e-05
-4.12144e-05
-5.60791e-05
-2.23299e-05
-1.33071e-05
1.33311e-05
2.21021e-05
3.58789e-05
4.0498e-05
5.84386e-05
5.92043e-05
5.76963e-05
5.66318e-05
4.98954e-05
4.40135e-05
3.12077e-05
2.07271e-05
8.66061e-06
7.87379e-06
3.95715e-05
8.65626e-06
1.75919e-05
1.52938e-05
3.51989e-05
3.4071e-05
4.80256e-05
4.81672e-05
5.51567e-05
5.607e-05
3.8649e-05
4.05309e-05
4.08529e-05
4.27733e-05
4.16931e-05
4.5166e-05
4.51122e-05
5.31575e-05
5.07291e-05
5.73669e-05
3.28355e-05
-1.6208e-05
-1.75661e-05
-3.13133e-05
-9.25357e-06
-5.46544e-06
1.36283e-05
1.97011e-05
3.06536e-05
3.44341e-05
4.30062e-05
4.31239e-05
4.1831e-05
4.07718e-05
3.56226e-05
3.0908e-05
2.14048e-05
1.2472e-05
3.66329e-06
-3.22855e-06
1.07317e-05
5.61235e-06
2.18912e-05
1.97376e-05
3.3395e-05
2.95547e-05
3.81628e-05
3.66992e-05
4.13457e-05
4.14367e-05
3.34353e-05
3.45757e-05
3.48506e-05
3.58582e-05
3.45646e-05
3.62086e-05
3.59815e-05
3.92619e-05
3.85485e-05
3.72989e-05
2.48595e-05
-5.73905e-06
-6.74126e-06
-1.76959e-05
-2.55506e-06
-1.85174e-07
1.40527e-05
1.86183e-05
2.7135e-05
2.98637e-05
3.44819e-05
3.42768e-05
3.33857e-05
3.24439e-05
2.86331e-05
2.51016e-05
1.83208e-05
1.12205e-05
5.32315e-06
-1.43168e-06
6.25363e-06
6.43862e-06
2.12476e-05
1.92263e-05
2.92868e-05
2.55912e-05
3.15033e-05
3.0058e-05
3.34394e-05
3.32912e-05
2.9746e-05
3.00656e-05
3.02791e-05
3.05394e-05
2.9079e-05
2.94591e-05
2.88189e-05
2.93042e-05
2.96737e-05
2.57957e-05
2.06701e-05
4.23865e-07
6.73599e-07
-7.33603e-06
3.46718e-06
5.0137e-06
1.53776e-05
1.87664e-05
2.51101e-05
2.68543e-05
2.97126e-05
2.91028e-05
2.86648e-05
2.77772e-05
2.48361e-05
2.22684e-05
1.80498e-05
1.21638e-05
8.94977e-06
2.89587e-06
8.12531e-06
7.87814e-06
1.96178e-05
1.72543e-05
2.51893e-05
2.25401e-05
2.68658e-05
2.60645e-05
2.8716e-05
2.84014e-05
2.73519e-05
2.68466e-05
2.71666e-05
2.69434e-05
2.52509e-05
2.4939e-05
2.39647e-05
2.26242e-05
2.36531e-05
1.89962e-05
1.7929e-05
4.46562e-06
6.45731e-06
7.10118e-07
8.7e-06
9.76586e-06
1.69312e-05
1.95041e-05
2.40971e-05
2.49114e-05
2.69603e-05
2.58582e-05
2.58828e-05
2.4908e-05
2.2535e-05
2.0964e-05
1.81048e-05
1.32966e-05
1.25972e-05
6.40464e-06
1.13185e-05
8.78584e-06
1.81347e-05
1.56373e-05
2.18048e-05
2.04244e-05
2.36958e-05
2.36995e-05
2.57702e-05
2.53136e-05
2.56958e-05
2.47272e-05
2.53143e-05
2.44778e-05
2.28993e-05
2.22109e-05
2.13249e-05
1.85087e-05
2.00904e-05
1.50562e-05
1.67459e-05
7.39768e-06
1.09171e-05
6.21168e-06
1.27018e-05
1.34302e-05
1.83384e-05
2.04471e-05
2.34429e-05
2.37779e-05
2.54303e-05
2.3397e-05
2.42261e-05
2.31615e-05
2.08944e-05
1.99657e-05
1.8142e-05
1.38065e-05
1.50122e-05
8.72335e-06
1.3791e-05
9.51715e-06
1.73713e-05
1.4474e-05
1.97095e-05
1.93147e-05
2.13854e-05
2.2397e-05
2.40447e-05
2.32421e-05
2.51328e-05
2.31695e-05
2.43146e-05
2.28865e-05
2.10794e-05
2.11197e-05
1.97177e-05
1.61217e-05
1.90945e-05
1.26171e-05
1.70412e-05
8.81212e-06
1.41305e-05
1.00518e-05
1.51755e-05
1.63197e-05
1.91964e-05
2.13573e-05
2.30018e-05
2.26773e-05
2.41542e-05
2.16603e-05
2.33451e-05
2.1656e-05
1.97706e-05
1.93922e-05
1.82672e-05
1.32934e-05
1.65843e-05
9.5624e-06
1.56547e-05
9.75072e-06
1.74394e-05
1.34059e-05
1.83709e-05
1.86465e-05
1.9963e-05
2.18434e-05
2.25712e-05
2.19194e-05
2.50706e-05
2.13298e-05
2.39341e-05
2.23575e-05
1.96466e-05
2.02863e-05
1.90826e-05
1.46143e-05
1.90558e-05
1.12918e-05
1.78383e-05
9.65464e-06
1.64405e-05
1.20812e-05
1.70289e-05
1.84178e-05
1.89717e-05
2.21809e-05
2.31503e-05
2.16791e-05
2.37072e-05
1.98298e-05
2.28483e-05
2.0676e-05
1.82064e-05
1.94179e-05
1.80945e-05
1.23008e-05
1.81029e-05
8.80018e-06
1.74519e-05
8.92797e-06
1.76209e-05
1.25479e-05
1.72191e-05
1.86801e-05
1.85508e-05
2.16619e-05
2.15098e-05
2.02279e-05
2.49476e-05
2.01083e-05
2.40539e-05
2.14163e-05
1.84732e-05
2.03417e-05
1.87349e-05
1.29188e-05
1.97436e-05
9.98366e-06
1.91153e-05
9.5886e-06
1.84522e-05
1.26954e-05
1.77826e-05
1.96691e-05
1.88032e-05
2.30125e-05
2.25797e-05
2.07777e-05
2.39446e-05
1.71711e-05
2.28442e-05
2.02908e-05
1.56339e-05
1.98993e-05
1.7848e-05
1.03338e-05
1.9302e-05
7.0973e-06
1.88785e-05
7.40623e-06
1.81997e-05
1.10822e-05
1.60359e-05
1.93119e-05
1.63166e-05
2.17649e-05
2.09022e-05
1.77112e-05
2.50366e-05
1.82609e-05
2.45813e-05
2.0675e-05
1.68403e-05
2.10375e-05
1.83326e-05
1.07032e-05
2.12849e-05
7.73153e-06
2.10125e-05
8.0475e-06
2.01471e-05
1.19204e-05
1.78955e-05
2.05565e-05
1.76238e-05
2.39238e-05
2.1881e-05
1.93909e-05
2.40532e-05
1.39621e-05
2.37008e-05
1.91642e-05
1.23252e-05
2.10813e-05
1.73747e-05
6.65411e-06
2.10168e-05
3.6262e-06
2.0727e-05
4.25628e-06
1.92144e-05
8.30172e-06
1.45481e-05
1.96335e-05
1.34962e-05
2.24801e-05
1.94051e-05
1.46556e-05
2.57197e-05
1.54335e-05
2.55712e-05
1.97184e-05
1.36657e-05
2.23451e-05
1.76409e-05
7.69263e-06
2.28671e-05
4.62058e-06
2.27358e-05
5.35573e-06
2.14027e-05
9.45201e-06
1.73185e-05
2.15836e-05
1.51526e-05
2.48968e-05
2.07284e-05
1.6562e-05
2.50029e-05
7.55168e-06
2.6312e-05
1.81944e-05
5.40602e-06
2.42909e-05
1.67909e-05
-1.17405e-06
2.45692e-05
-3.65224e-06
2.42306e-05
-2.61541e-06
2.16412e-05
1.90721e-06
1.19692e-05
2.10521e-05
7.42067e-06
2.45678e-05
1.77664e-05
8.72708e-06
2.61238e-05
1.02989e-05
2.74218e-05
1.75608e-05
8.20796e-06
2.49474e-05
1.58861e-05
1.76321e-06
2.50552e-05
-1.19373e-06
2.47675e-05
-1.50916e-07
2.25747e-05
4.19379e-06
1.54535e-05
2.17862e-05
1.01067e-05
2.61804e-05
1.79234e-05
1.17379e-05
2.82041e-05
-6.75484e-06
3.39772e-05
1.43666e-05
-1.18797e-05
3.39138e-05
1.37805e-05
-1.97686e-05
3.22262e-05
-2.05337e-05
3.11754e-05
-1.88638e-05
2.69512e-05
-1.40247e-05
6.73325e-06
2.45487e-05
-6.70094e-06
3.08669e-05
1.28745e-05
-5.60792e-06
-0.0109102
-0.0105171
-0.010211
-0.00999955
-0.00988285
-0.00986992
-0.00999032
-0.0102245
-0.0105669
-0.0109938
-0.0114836
-0.011985
-0.0124345
-0.0127527
-0.0128873
-0.0128495
-0.0126476
-0.0122975
-0.0118498
-0.0113682
0.00235308
0.00230273
0.00216804
0.00200459
0.00185029
0.00176157
0.00169438
0.00161207
0.0014931
0.00134184
0.00114206
0.000919915
0.000730859
0.000636481
0.000699669
0.000969875
0.00134818
0.001741
0.00207066
0.00228168
-0.00232123
-0.00208636
-0.00190107
-0.00176501
-0.00171523
-0.00176968
-0.00189483
-0.00204126
-0.00225529
-0.00250698
-0.00283502
-0.00318494
-0.00348951
-0.00366199
-0.00370163
-0.00362844
-0.00344194
-0.00316614
-0.00286732
-0.00258046
0.00289641
0.00296045
0.00298544
0.00300393
0.00300956
0.00301056
0.00294549
0.00287031
0.00270778
0.00252106
0.0021997
0.00183427
0.00152597
0.00139115
0.00151417
0.00176892
0.00210306
0.00240424
0.00263548
0.00279696
-0.000462388
-0.000314794
-0.000241878
-0.000194413
-0.000231232
-0.000245473
-0.000305077
-0.000348838
-0.000499346
-0.00068712
-0.00109736
-0.00159733
-0.00202969
-0.00226791
-0.00230017
-0.00212487
-0.00177057
-0.0013639
-0.000983763
-0.000677309
0.00200615
0.00210874
0.00215998
0.00220645
0.00220301
0.00219353
0.00211155
0.00204177
0.00185022
0.00163464
0.001134
0.000606347
0.000226539
0.000153328
0.000356006
0.000706027
0.00108048
0.0014072
0.00167141
0.00187046
5.1355e-05
9.61575e-05
0.000100805
0.000105641
8.36362e-05
0.000105974
7.62018e-05
6.99115e-05
-7.30028e-05
-0.000275135
-0.000865057
-0.00149618
-0.00190332
-0.00197619
-0.00169496
-0.00125005
-0.000795648
-0.000439928
-0.000187582
-3.08055e-05
0.00124128
0.00131218
0.00134537
0.00137983
0.0013557
0.00134206
0.00126565
0.00120033
0.00101524
0.000769187
0.000129197
-0.000458508
-0.00072139
-0.000551314
-0.000171029
0.000230138
0.000586211
0.000839131
0.00102534
0.0011535
0.000164948
0.000175717
0.000163904
0.000165546
0.000158207
0.000182423
0.000162688
0.000157889
3.64194e-05
-0.000181962
-0.000853331
-0.00147995
-0.00168835
-0.00143523
-0.000964418
-0.000558408
-0.000234989
-4.23444e-05
7.99716e-05
0.000140866
0.000733437
0.000774009
0.000790542
0.000806407
0.000783848
0.000768655
0.000709179
0.000654233
0.000511725
0.000286377
-0.00033291
-0.000833238
-0.000839373
-0.000546313
-0.000133091
0.000159587
0.000388367
0.000519548
0.000620084
0.000685126
0.000172341
0.00017675
0.000166932
0.000173015
0.000167766
0.000186049
0.000171475
0.000175282
9.42402e-05
-5.01334e-05
-0.000621047
-0.00114771
-0.00108691
-0.00078859
-0.000408808
-0.000177644
-1.30873e-06
8.07325e-05
0.000139486
0.000163006
0.000429954
0.000451107
0.000457226
0.000463545
0.000444505
0.000431526
0.00038791
0.000351793
0.000260994
0.000134961
-0.000326614
-0.000616182
-0.000502642
-0.000238324
3.05618e-05
0.000165519
0.000277414
0.00032604
0.000375838
0.000404767
0.00015105
0.00015608
0.000151428
0.000159026
0.000154421
0.000169922
0.000160747
0.000186994
0.000152581
0.000177262
-0.00020061
-0.000573591
-0.000487322
-0.000328134
-0.00012039
-2.95626e-05
6.15545e-05
9.40369e-05
0.000129867
0.000142537
0.000257879
0.000268627
0.00026948
0.000271943
0.000255748
0.00024566
0.000212791
0.000193967
0.000147334
0.000138417
-8.26535e-05
-0.000198612
-0.000126165
-1.207e-05
0.000108784
0.000139695
0.000190969
0.000203508
0.00023133
0.000243971
0.00012405
0.00013006
0.000129056
0.00013632
0.000132511
0.000146098
0.000141779
0.00018267
0.000189074
0.000362609
0.00022688
-0.000147917
-0.00015592
-0.000141558
-5.10381e-05
-1.36404e-05
5.10641e-05
7.2222e-05
0.000103028
0.000114103
0.000163128
0.000168901
0.000167717
0.000168494
0.000154864
0.000146501
0.000119578
0.000107006
7.56275e-05
0.000142494
0.000249618
6.63162e-06
-2.52419e-05
-1.75445e-05
5.17485e-05
6.51186e-05
0.000112142
0.000122933
0.000146155
0.000153864
0.000100122
0.000105756
0.000106317
0.000112103
0.000108861
0.000118364
0.000114638
0.000139458
0.000128723
0.000184084
0.000107428
-6.22103e-05
-5.61414e-05
-7.77595e-05
-1.6864e-05
-6.56301e-06
4.02684e-05
5.47572e-05
8.07851e-05
9.03333e-05
0.000112111
0.000115125
0.000113447
0.000113457
0.000102466
9.53294e-05
7.42985e-05
6.13076e-05
3.9652e-05
4.15659e-05
7.37694e-05
3.20062e-06
2.75049e-05
1.98686e-05
5.98196e-05
5.64169e-05
8.47687e-05
8.66008e-05
0.000102274
0.000105951
8.18974e-05
8.61468e-05
8.69788e-05
9.0923e-05
8.79556e-05
9.36033e-05
9.0826e-05
0.000102904
9.55087e-05
0.00010499
6.24217e-05
-2.66719e-05
-1.84288e-05
-4.24762e-05
-1.11345e-06
1.99068e-06
3.64258e-05
4.59571e-05
6.63558e-05
7.35222e-05
8.42418e-05
8.56913e-05
8.4207e-05
8.38354e-05
7.53349e-05
6.95121e-05
5.38322e-05
4.18486e-05
2.60661e-05
1.589e-05
2.99036e-05
7.83995e-06
3.83766e-05
2.97683e-05
5.78946e-05
5.01857e-05
6.89025e-05
6.7444e-05
7.83187e-05
7.98838e-05
6.91677e-05
7.17169e-05
7.23489e-05
7.46184e-05
7.15634e-05
7.43737e-05
7.19474e-05
7.6468e-05
7.2743e-05
6.91209e-05
4.79978e-05
-6.33429e-06
-3.15173e-07
-2.04095e-05
8.71735e-06
9.74175e-06
3.537e-05
4.19601e-05
5.75266e-05
6.23513e-05
6.85371e-05
6.89465e-05
6.79644e-05
6.73852e-05
6.09475e-05
5.65314e-05
4.5275e-05
3.51297e-05
2.47754e-05
1.32937e-05
2.18238e-05
1.31896e-05
3.97994e-05
3.19891e-05
5.28197e-05
4.54283e-05
5.86458e-05
5.67271e-05
6.46543e-05
6.52043e-05
6.08565e-05
6.16834e-05
6.22069e-05
6.30814e-05
5.99393e-05
6.0805e-05
5.8317e-05
5.83729e-05
5.73609e-05
4.94355e-05
4.10871e-05
5.56042e-06
1.17175e-05
-3.57228e-06
1.7628e-05
1.77809e-05
3.64349e-05
4.10707e-05
5.25438e-05
5.53978e-05
5.96588e-05
5.89436e-05
5.86298e-05
5.77791e-05
5.2669e-05
4.94653e-05
4.22697e-05
3.33555e-05
2.79767e-05
1.69502e-05
2.40501e-05
1.75629e-05
3.8797e-05
3.13312e-05
4.76326e-05
4.21168e-05
5.17648e-05
5.06374e-05
5.66328e-05
5.64536e-05
5.5739e-05
5.48677e-05
5.56455e-05
5.55109e-05
5.21332e-05
5.19861e-05
4.94414e-05
4.65511e-05
4.75824e-05
3.82674e-05
3.7312e-05
1.3258e-05
2.09551e-05
9.42367e-06
2.53644e-05
2.52829e-05
3.82375e-05
4.17507e-05
4.99627e-05
5.10932e-05
5.45808e-05
5.26236e-05
5.31268e-05
5.17998e-05
4.75356e-05
4.57103e-05
4.07572e-05
3.29516e-05
3.21846e-05
2.06221e-05
2.87258e-05
2.02583e-05
3.76638e-05
3.05993e-05
4.34067e-05
4.01581e-05
4.72254e-05
4.73477e-05
5.17746e-05
5.10228e-05
5.24963e-05
5.03892e-05
5.18172e-05
5.0475e-05
4.72779e-05
4.67098e-05
4.45588e-05
3.92432e-05
4.21534e-05
3.19048e-05
3.61976e-05
1.8605e-05
2.81059e-05
1.8339e-05
3.13031e-05
3.12361e-05
4.00026e-05
4.31229e-05
4.84231e-05
4.85535e-05
5.18426e-05
4.79465e-05
4.99467e-05
4.80891e-05
4.39419e-05
4.3196e-05
3.98569e-05
3.22735e-05
3.52995e-05
2.30321e-05
3.27019e-05
2.20722e-05
3.74384e-05
3.00415e-05
4.09215e-05
3.9563e-05
4.39622e-05
4.58273e-05
4.89684e-05
4.74166e-05
5.12942e-05
4.70888e-05
4.98166e-05
4.72301e-05
4.3637e-05
4.43867e-05
4.16418e-05
3.47656e-05
4.08444e-05
2.78561e-05
3.73654e-05
2.11962e-05
3.34129e-05
2.44283e-05
3.5014e-05
3.60325e-05
4.09976e-05
4.46769e-05
4.74406e-05
4.63573e-05
4.9868e-05
4.44861e-05
4.83553e-05
4.51705e-05
4.13567e-05
4.18258e-05
3.94623e-05
3.04092e-05
3.76765e-05
2.34016e-05
3.60185e-05
2.26385e-05
3.83336e-05
2.91402e-05
3.93858e-05
3.94882e-05
4.18096e-05
4.54908e-05
4.66767e-05
4.49782e-05
5.11225e-05
4.34909e-05
4.91173e-05
4.58031e-05
4.06683e-05
4.29122e-05
4.03531e-05
3.15789e-05
4.12316e-05
2.52088e-05
3.93789e-05
2.23764e-05
3.73988e-05
2.7484e-05
3.77211e-05
3.96386e-05
4.03234e-05
4.6244e-05
4.73684e-05
4.43203e-05
4.9307e-05
4.08692e-05
4.7673e-05
4.32115e-05
3.81615e-05
4.17418e-05
3.88383e-05
2.78234e-05
4.03015e-05
2.13036e-05
3.94072e-05
2.1158e-05
3.93812e-05
2.7981e-05
3.79135e-05
4.02728e-05
3.94089e-05
4.57495e-05
4.49421e-05
4.19204e-05
5.11188e-05
4.05998e-05
4.94541e-05
4.39502e-05
3.78866e-05
4.3125e-05
3.9528e-05
2.7898e-05
4.29178e-05
2.2174e-05
4.21984e-05
2.16204e-05
4.09734e-05
2.79813e-05
3.86805e-05
4.20177e-05
3.93936e-05
4.79133e-05
4.62365e-05
4.21852e-05
4.98829e-05
3.58315e-05
4.8027e-05
4.2115e-05
3.3273e-05
4.27732e-05
3.8116e-05
2.35119e-05
4.28173e-05
1.73891e-05
4.2487e-05
1.79918e-05
4.10288e-05
2.52786e-05
3.61259e-05
4.17831e-05
3.54199e-05
4.64983e-05
4.36585e-05
3.7385e-05
5.15782e-05
3.64105e-05
5.07475e-05
4.23194e-05
3.39934e-05
4.47179e-05
3.85463e-05
2.29205e-05
4.61166e-05
1.71357e-05
4.60837e-05
1.79701e-05
4.41969e-05
2.57465e-05
3.84884e-05
4.38315e-05
3.65038e-05
4.98535e-05
4.46818e-05
3.8922e-05
5.0455e-05
2.94398e-05
5.00175e-05
3.98571e-05
2.67035e-05
4.53473e-05
3.69436e-05
1.60947e-05
4.64553e-05
1.01996e-05
4.64346e-05
1.16147e-05
4.33948e-05
1.97816e-05
3.35939e-05
4.28188e-05
2.98941e-05
4.82879e-05
4.08075e-05
3.14968e-05
5.30695e-05
3.00239e-05
5.32482e-05
4.01551e-05
2.70089e-05
4.78839e-05
3.69411e-05
1.57823e-05
4.98674e-05
9.81422e-06
5.00882e-05
1.15447e-05
4.70297e-05
1.99696e-05
3.69814e-05
4.58828e-05
3.08768e-05
5.22003e-05
4.20787e-05
3.2838e-05
5.24276e-05
1.75994e-05
5.51435e-05
3.74729e-05
1.3957e-05
5.16634e-05
3.52929e-05
1.67732e-06
5.32459e-05
-3.49465e-06
5.31257e-05
-1.22166e-06
4.79952e-05
7.90682e-06
2.9129e-05
4.54525e-05
1.8737e-05
5.24076e-05
3.72205e-05
2.06449e-05
5.44851e-05
1.92556e-05
5.78328e-05
3.59193e-05
1.54331e-05
5.40209e-05
3.34747e-05
3.07718e-06
5.521e-05
-2.69194e-06
5.5097e-05
-2.62e-07
5.01828e-05
8.77987e-06
3.32501e-05
4.70143e-05
2.04055e-05
5.55944e-05
3.65962e-05
2.28179e-05
5.77719e-05
-5.23155e-06
6.81254e-05
3.08252e-05
-1.32982e-05
6.80115e-05
3.00224e-05
-2.77929e-05
6.64299e-05
-3.06355e-05
6.51536e-05
-2.72498e-05
5.70286e-05
-1.75053e-05
2.10733e-05
5.13051e-05
-3.65674e-06
6.29519e-05
2.86617e-05
-1.84051e-06
-0.0134298
-0.0128791
-0.0124288
-0.0121005
-0.0119081
-0.0118812
-0.0120361
-0.0123512
-0.0128161
-0.0133954
-0.0140535
-0.0147219
-0.0153184
-0.0157469
-0.0159422
-0.0159123
-0.0156694
-0.0152351
-0.0146688
-0.0140442
0.00197439
0.00202678
0.00195674
0.00182012
0.00166243
0.00154843
0.00141425
0.00124238
0.00101068
0.000728385
0.000383462
1.58647e-05
-0.000297497
-0.000472194
-0.000426203
-0.000110214
0.000370945
0.000906771
0.00139763
0.00176666
-0.0027212
-0.00241397
-0.00219803
-0.00206277
-0.00204826
-0.0021538
-0.00234781
-0.0025839
-0.00291461
-0.0033085
-0.0038068
-0.00433069
-0.00477727
-0.0050196
-0.00505037
-0.00486857
-0.00450594
-0.00402904
-0.00353998
-0.0030956
0.00336935
0.00344741
0.00346679
0.00347078
0.00344914
0.00340673
0.00328316
0.00313118
0.00285703
0.0025259
0.0020149
0.00146196
0.00103065
0.000890144
0.00113716
0.00158068
0.00212619
0.00261277
0.00298082
0.00322772
-0.000288674
-0.000129708
-5.84976e-05
-2.13951e-05
-8.11855e-05
-0.000120291
-0.000227789
-0.000337614
-0.000599429
-0.000943093
-0.00157629
-0.00228785
-0.00282381
-0.00303598
-0.00290951
-0.00251506
-0.00195077
-0.00138247
-0.000897618
-0.000532024
0.00245631
0.00257668
0.0026336
0.00268126
0.00265903
0.00262673
0.00249673
0.00236214
0.00205566
0.00167523
0.000928296
0.0001999
-0.000238125
-0.000194649
0.000202151
0.000752633
0.00128603
0.00172006
0.00205237
0.00229423
0.000278579
0.000337373
0.000345133
0.000348402
0.000317144
0.000326055
0.000259173
0.000199918
-5.13989e-05
-0.000420771
-0.00127847
-0.0021048
-0.00253589
-0.00246103
-0.00197421
-0.00134859
-0.00076296
-0.000323829
-1.72037e-05
0.000174831
0.00156614
0.00165569
0.00169619
0.00173347
0.0016971
0.00166776
0.00155284
0.00143407
0.00114248
0.000728192
-0.000181961
-0.0009324
-0.00115703
-0.000831059
-0.000262277
0.00027811
0.000734452
0.0010534
0.00128883
0.00145296
0.000358472
0.000381036
0.000371601
0.00037584
0.000360666
0.000376588
0.000327915
0.000281476
6.66199e-05
-0.000311683
-0.00125365
-0.00202559
-0.00215974
-0.00173995
-0.00110013
-0.000580994
-0.000175999
6.85996e-05
0.000229983
0.000317371
0.000953963
0.00100733
0.00102794
0.00104538
0.00101379
0.000988189
0.000900073
0.000805518
0.000578539
0.00020623
-0.000666288
-0.00127019
-0.00117646
-0.000731429
-0.000180932
0.000196448
0.000490265
0.000663397
0.000798651
0.000888215
0.00031996
0.000332575
0.000324067
0.000332734
0.000321335
0.000334766
0.000299626
0.000276709
0.000128099
-0.000137847
-0.000940917
-0.00155261
-0.00137953
-0.000952869
-0.000461071
-0.000167189
6.05017e-05
0.0001733
0.000258507
0.000299076
0.000577464
0.000606517
0.000614357
0.000621918
0.000595857
0.000576531
0.000513442
0.00045354
0.000307529
8.24476e-05
-0.000574712
-0.000903521
-0.000687399
-0.000321674
2.95059e-05
0.000205666
0.000355986
0.000426674
0.000498307
0.000541534
0.000259174
0.000269986
0.000266184
0.000276042
0.000266758
0.000280447
0.000258434
0.000274453
0.000202166
0.000167431
-0.000373909
-0.000788916
-0.000617644
-0.000391967
-0.000122257
-4.82723e-06
0.000117104
0.000165677
0.000219284
0.000242589
0.000358005
0.000373776
0.000375246
0.000378832
0.000357141
0.000343583
0.000298002
0.000268802
0.000193951
0.000142277
-0.000191859
-0.0003221
-0.000185324
-2.82197e-05
0.000133085
0.000177201
0.000250876
0.00027385
0.00031606
0.000337088
0.000202862
0.000213145
0.000212788
0.000222002
0.000214617
0.000228253
0.000216456
0.000258251
0.000250597
0.000420021
0.000202974
-0.000229181
-0.000195108
-0.000163823
-3.99869e-05
6.91617e-06
9.33737e-05
0.000124058
0.000168394
0.000186748
0.000233698
0.000242881
0.000241876
0.000243609
0.000225552
0.000215181
0.000179204
0.000162843
0.000117393
0.000184745
0.000270378
-3.26279e-05
-4.36423e-05
-2.79195e-05
6.79909e-05
8.82085e-05
0.000153843
0.000171526
0.000206013
0.000219319
0.000158917
0.000167679
0.000168688
0.00017599
0.000169845
0.00017968
0.000170694
0.000197174
0.000177392
0.000236965
0.000130595
-8.94037e-05
-7.04546e-05
-9.36783e-05
-8.86734e-06
6.30674e-06
7.12111e-05
9.2498e-05
0.000129488
0.000144282
0.000164684
0.000170011
0.000168324
0.000169047
0.00015445
0.000145861
0.000117966
0.000102131
7.12879e-05
7.18083e-05
9.54783e-05
-7.28113e-06
2.87889e-05
1.83107e-05
7.65969e-05
7.48847e-05
0.000117219
0.000123045
0.000147321
0.0001547
0.000127741
0.000134116
0.000135182
0.000140151
0.00013471
0.000140424
0.000133662
0.000145941
0.000132583
0.000140756
8.42676e-05
-3.49764e-05
-1.85958e-05
-4.85851e-05
9.58171e-06
1.44112e-05
6.24392e-05
7.61879e-05
0.000104953
0.000115666
0.000125912
0.000128825
0.000127247
0.000127314
0.000115874
0.000108866
8.79965e-05
7.31776e-05
5.10246e-05
3.68668e-05
4.67818e-05
8.18783e-06
4.86314e-05
3.51136e-05
7.64255e-05
6.80151e-05
9.68965e-05
9.75041e-05
0.000114775
0.000118681
0.00010689
0.000110691
0.000111399
0.000114231
0.000108981
0.000111561
0.000105986
0.000109551
0.000101995
9.46861e-05
6.69696e-05
-5.60216e-06
6.9489e-06
-1.90659e-05
2.23688e-05
2.35974e-05
5.92845e-05
6.84164e-05
9.0208e-05
9.72688e-05
0.000103609
0.000104761
0.000103691
0.000103274
9.44088e-05
8.90216e-05
7.39074e-05
6.09996e-05
4.65931e-05
3.04347e-05
3.75353e-05
1.91947e-05
5.41515e-05
4.15685e-05
7.22403e-05
6.35001e-05
8.42132e-05
8.34316e-05
9.61154e-05
9.80619e-05
9.36208e-05
9.49132e-05
9.54837e-05
9.65078e-05
9.13658e-05
9.1821e-05
8.68005e-05
8.51779e-05
8.19996e-05
6.97315e-05
5.894e-05
1.16532e-05
2.35982e-05
3.30662e-06
3.37955e-05
3.3583e-05
5.95916e-05
6.58318e-05
8.18554e-05
8.59713e-05
9.08062e-05
9.01349e-05
8.98537e-05
8.88752e-05
8.16654e-05
7.77061e-05
6.77398e-05
5.61003e-05
4.8649e-05
3.2908e-05
4.04428e-05
2.7043e-05
5.53266e-05
4.36071e-05
6.75681e-05
6.08464e-05
7.60292e-05
7.5723e-05
8.52328e-05
8.57398e-05
8.55715e-05
8.44107e-05
8.53812e-05
8.50244e-05
7.97564e-05
7.91983e-05
7.46064e-05
6.95258e-05
6.98296e-05
5.596e-05
5.52198e-05
2.28767e-05
3.61147e-05
2.03981e-05
4.3559e-05
4.30511e-05
6.12423e-05
6.5954e-05
7.7409e-05
7.9051e-05
8.34543e-05
8.08232e-05
8.16381e-05
7.98436e-05
7.36667e-05
7.13889e-05
6.43671e-05
5.37892e-05
5.27121e-05
3.62738e-05
4.64114e-05
3.1969e-05
5.56956e-05
4.4811e-05
6.37907e-05
5.97883e-05
7.08407e-05
7.18401e-05
7.87569e-05
7.81325e-05
8.06497e-05
7.75023e-05
7.94949e-05
7.75039e-05
7.24856e-05
7.16946e-05
6.78874e-05
5.98805e-05
6.34628e-05
4.82961e-05
5.48796e-05
3.05794e-05
4.57409e-05
3.21519e-05
5.10197e-05
5.07315e-05
6.30538e-05
6.73826e-05
7.48224e-05
7.49055e-05
7.94948e-05
7.40426e-05
7.69155e-05
7.41889e-05
6.81281e-05
6.73526e-05
6.23814e-05
5.17416e-05
5.61299e-05
3.84843e-05
5.1764e-05
3.51848e-05
5.67907e-05
4.56359e-05
6.17907e-05
6.02236e-05
6.71926e-05
7.03182e-05
7.50461e-05
7.3105e-05
7.8643e-05
7.24286e-05
7.64109e-05
7.26724e-05
6.71376e-05
6.82301e-05
6.39587e-05
5.38171e-05
6.22429e-05
4.33943e-05
5.72533e-05
3.44703e-05
5.29729e-05
4.00747e-05
5.57444e-05
5.70077e-05
6.40074e-05
6.93121e-05
7.3217e-05
7.15442e-05
7.6891e-05
6.89198e-05
7.45746e-05
6.99609e-05
6.40708e-05
6.52047e-05
6.13824e-05
4.85861e-05
5.912e-05
3.83413e-05
5.64753e-05
3.63695e-05
5.89597e-05
4.55114e-05
6.06404e-05
6.113e-05
6.46627e-05
7.03127e-05
7.21381e-05
6.95778e-05
7.81924e-05
6.71959e-05
7.52909e-05
7.02729e-05
6.27319e-05
6.62438e-05
6.21428e-05
4.9238e-05
6.32604e-05
3.98452e-05
6.06549e-05
3.60743e-05
5.8518e-05
4.39718e-05
5.90842e-05
6.18384e-05
6.2929e-05
7.14194e-05
7.27642e-05
6.84425e-05
7.61683e-05
6.3654e-05
7.36828e-05
6.70836e-05
5.93757e-05
6.49645e-05
6.03373e-05
4.45318e-05
6.26768e-05
3.5134e-05
6.13478e-05
3.46093e-05
6.11742e-05
4.44537e-05
5.92728e-05
6.284e-05
6.15741e-05
7.1066e-05
6.98676e-05
6.52946e-05
7.82097e-05
6.26362e-05
7.57224e-05
6.75888e-05
5.83828e-05
6.65906e-05
6.09294e-05
4.38366e-05
6.59699e-05
3.53896e-05
6.50167e-05
3.47576e-05
6.34822e-05
4.43304e-05
6.01654e-05
6.52012e-05
6.12062e-05
7.37503e-05
7.10965e-05
6.50265e-05
7.69069e-05
5.65755e-05
7.432e-05
6.52432e-05
5.253e-05
6.64302e-05
5.92047e-05
3.81583e-05
6.6391e-05
2.93392e-05
6.5999e-05
3.01854e-05
6.39889e-05
4.09003e-05
5.71892e-05
6.52054e-05
5.62526e-05
7.24458e-05
6.79383e-05
5.90602e-05
7.89149e-05
5.62457e-05
7.7612e-05
6.51356e-05
5.23461e-05
6.89421e-05
5.94733e-05
3.6398e-05
7.0617e-05
2.79853e-05
7.06695e-05
2.93287e-05
6.80189e-05
4.07878e-05
5.96078e-05
6.78342e-05
5.67392e-05
7.65166e-05
6.87366e-05
5.99222e-05
7.78e-05
4.74697e-05
7.72026e-05
6.20316e-05
4.32048e-05
7.01413e-05
5.74597e-05
2.76262e-05
7.16634e-05
1.91044e-05
7.17825e-05
2.12431e-05
6.759e-05
3.32615e-05
5.3865e-05
6.69429e-05
4.85191e-05
7.51306e-05
6.39667e-05
5.07575e-05
8.09168e-05
4.6733e-05
8.13406e-05
6.1916e-05
4.20627e-05
7.36582e-05
5.71337e-05
2.56214e-05
7.62331e-05
1.70645e-05
7.66666e-05
1.97283e-05
7.21899e-05
3.21994e-05
5.71662e-05
7.07016e-05
4.8403e-05
7.99699e-05
6.4842e-05
5.09825e-05
8.03773e-05
3.16076e-05
8.4103e-05
5.8457e-05
2.61606e-05
7.87127e-05
5.49597e-05
8.38205e-06
8.08068e-05
7.27615e-07
8.08342e-05
4.10824e-06
7.37378e-05
1.74376e-05
4.79341e-05
7.04285e-05
3.36854e-05
8.06592e-05
5.87557e-05
3.62249e-05
8.2972e-05
3.17093e-05
8.79552e-05
5.61649e-05
2.58391e-05
8.24369e-05
5.24928e-05
7.7656e-06
8.39857e-05
-4.52147e-07
8.39943e-05
3.22979e-06
7.68367e-05
1.65856e-05
5.18572e-05
7.25938e-05
3.39011e-05
8.49013e-05
5.73506e-05
3.69886e-05
8.65919e-05
3.93543e-06
9.99871e-05
5.00847e-05
-6.67182e-06
9.88203e-05
4.8398e-05
-2.71813e-05
9.70996e-05
-3.21652e-05
9.5756e-05
-2.73789e-05
8.46925e-05
-1.32798e-05
3.79217e-05
7.74401e-05
6.65188e-06
9.33426e-05
4.78274e-05
9.15488e-06
-0.0148346
-0.0142072
-0.0136919
-0.0133157
-0.0131011
-0.0130844
-0.013273
-0.0136452
-0.0141873
-0.0148569
-0.0156101
-0.0163674
-0.0170356
-0.0175089
-0.0177175
-0.0176702
-0.0173824
-0.0168828
-0.0162389
-0.0155313
0.00146474
0.00156908
0.00153606
0.00142056
0.00127313
0.0011508
0.000976486
0.000747263
0.000440014
7.01744e-05
-0.000368853
-0.000825146
-0.0012069
-0.0014172
-0.00136339
-0.00100393
-0.000454315
0.00016496
0.000741804
0.00119023
-0.00307221
-0.00271636
-0.00247716
-0.00233844
-0.00234831
-0.00248733
-0.0027291
-0.00303008